Title = Snapshot #40
Variables=X Y Z PartID
Zone I= 6358, F=POINT
1.095522e+01 -1.168260e+01 2.118332e+01 2
3.156905e+01 -2.481653e+01 2.015929e+01 6
1.380458e+01 1.088223e+01 2.762970e+01 8
1.102730e+01 2.167526e+01 2.219635e+01 12
-4.002788e+00 6.053668e+00 1.015271e+01 14
-3.149346e+01 1.887237e+01 8.581779e-01 17
-2.173316e+01 1.226956e+01 8.112251e+00 18
-3.254913e+01 -2.271798e+01 2.186991e+01 21
-1.545302e+01 -1.472314e+01 2.497833e+01 23
2.062886e+01 -1.136481e+01 1.545127e+01 31
-1.427771e+01 -1.165230e+00 6.027392e+00 41
8.316292e+00 7.397243e+00 1.455381e+01 42
-1.962871e+01 5.238085e+00 1.999263e+01 45
-4.099185e+01 -2.167359e+01 2.619764e+01 74
-2.805172e+01 -1.167520e+01 8.628073e+00 80
4.716410e+00 2.270142e+01 1.350963e+01 82
-4.557570e+01 -1.501414e+01 2.411283e+01 83
-4.732384e+01 1.105937e+01 2.559618e+01 90
2.700017e+01 1.346439e+01 7.495208e+00 91
3.206700e+01 -1.157708e+01 2.222819e+01 95
3.593029e+01 1.250899e+01 2.401856e+01 98
4.698106e+01 1.156837e+01 1.677690e+01 135
8.607416e+00 -7.858718e+00 1.705922e+01 137
3.567034e+01 8.657222e+00 1.288529e+01 150
-1.700917e+01 -5.381648e+00 7.877040e+00 158
3.123763e+01 1.460818e+00 1.512296e+01 171
2.561673e+01 1.371420e+01 5.806992e+00 181
-4.828831e+01 -5.883834e+00 2.002088e+01 199
-7.245506e+00 5.045782e+00 1.065575e+01 214
-1.760737e+01 2.015801e+01 4.924056e+00 217
-3.706538e+01 -1.521052e+01 2.553483e+01 219
2.921251e+00 2.852985e+00 1.140060e+01 233
-4.290597e+01 1.482329e+01 8.716018e+00 234
2.486467e+01 -1.427840e+01 5.300233e+00 257
-4.072125e+01 -1.697191e+01 1.959055e+01 279
1.128623e+01 2.243418e+00 2.087259e+01 295
-4.115246e+01 -1.800154e+01 4.417750e+00 309
3.914631e+01 -1.917056e+01 6.286027e+00 317
1.197528e+01 1.143433e+00 2.697893e+01 319
1.201395e+01 -1.747449e+01 2.591760e+01 321
-3.955566e+01 1.549866e+01 1.996941e+01 325
-4.613537e+01 -1.195470e+01 1.807467e+00 329
3.926922e+01 1.997541e+01 2.974745e+01 337
-3.024581e+01 -1.116947e+01 8.425029e+00 340
-4.846445e+01 2.360287e+01 1.654923e+01 348
4.560401e+01 2.373065e+01 2.911935e+01 352
4.830731e+01 1.367949e+01 1.782441e+01 363
-9.615800e+00 2.315603e+01 3.012973e+00 373
4.714751e+01 9.820241e-01 2.938453e+01 375
3.548519e+01 2.473798e+01 2.023235e+01 379
-2.450664e+01 1.169829e+01 4.481134e+00 396
1.827876e+01 1.047448e+01 1.106282e+01 412
2.469264e+01 -1.733169e+01 2.960526e+01 418
-9.664415e+00 -1.922772e+01 2.288404e+01 425
6.381027e+00 1.459989e+01 5.840867e-01 426
-8.517224e-01 1.678185e-01 9.353777e+00 427
2.272162e+01 1.034965e+01 2.358998e+01 441
2.215018e+01 1.473357e+01 2.773004e+01 443
1.357145e+01 2.157132e+01 2.715706e+01 454
2.726512e+01 9.891430e+00 2.496100e+01 457
7.985101e-01 2.347938e+01 1.981507e+01 467
3.702859e+01 -1.490327e+01 7.689465e+00 477
-4.658056e+01 8.470756e+00 5.931370e+00 483
3.910432e+01 4.076539e+00 4.520196e+00 504
-7.088152e+00 5.550299e+00 1.536841e+01 505
1.774101e+01 1.435645e+01 2.944764e+01 506
6.857054e+00 -1.334444e+01 1.111576e+01 510
-4.395319e+00 1.052318e+01 9.205403e+00 521
-1.485799e+01 -2.175166e+01 9.972662e+00 524
-4.720697e+01 -1.841872e+01 2.622448e+01 525
-3.184733e+01 5.495969e+00 2.735115e+01 536
1.796205e+01 1.856826e+01 2.734043e+00 537
-2.687819e+01 2.485746e+01 1.279369e+01 543
-6.951403e+00 -1.036937e+01 2.704111e+01 555
-8.412388e+00 5.741125e+00 2.889308e+01 559
3.167890e+01 1.233094e+01 2.886669e+01 564
4.149698e+01 1.838218e+01 1.663939e+01 578
-4.832566e+00 2.014523e+01 4.725320e-01 581
-4.500053e+01 2.704338e+00 1.602631e+01 582
-2.695950e+01 1.400540e+01 1.415918e+01 588
4.734931e+01 2.124631e+01 1.603734e+01 591
1.110487e+00 1.540578e+01 2.778677e+01 594
-4.653769e+01 7.310806e+00 4.269493e+00 599
-6.000580e+00 -2.324466e+01 8.249439e-01 611
-4.677391e+01 2.101038e+01 1.146848e+01 618
-3.855937e+01 -7.470453e+00 1.456232e+01 626
4.168762e+01 1.810432e+01 2.914371e+00 629
-4.935563e+00 2.389709e+01 2.695674e+01 634
3.661698e+00 -1.368480e+01 6.461248e+00 636
-1.600864e+01 -8.057907e+00 2.105207e+01 640
2.738892e+01 1.558105e+01 1.831779e+00 650
-9.477159e+00 -3.137475e+00 2.025227e+01 661
-4.004187e+01 -7.643063e+00 9.665444e+00 667
1.430908e+01 -1.212577e+01 2.261998e+01 674
3.080802e+01 -1.251016e+01 2.709073e+00 675
7.767251e+00 -1.509291e+01 1.491821e+01 686
4.330679e+01 2.113541e-01 2.000772e+01 687
2.161884e+01 -4.853779e+00 2.595098e+01 688
-2.041439e+01 -1.224146e+01 2.069275e+01 691
-2.595350e+01 -6.209622e+00 8.497307e+00 697
-2.685065e+01 1.655752e+01 1.376086e+01 701
-1.868913e+01 -9.243314e+00 2.680374e+01 702
-1.083622e+01 1.682357e+01 2.433697e+01 704
4.727150e+01 2.149183e+01 1.100068e+01 723
3.499274e+01 1.582848e+01 1.915803e+01 724
1.776460e+01 1.269092e+01 1.117508e+01 729
-3.487436e+00 -8.792150e+00 2.460548e+01 731
-4.544791e+01 -2.030454e+01 5.686136e+00 739
-2.286221e+01 1.522767e+01 1.660431e+01 743
3.809676e+01 1.101891e+01 2.631313e+01 747
-2.655791e+00 -8.511649e+00 4.130965e+00 749
3.339996e+01 -1.249978e+01 1.062618e+01 752
2.394214e+01 1.046355e+01 2.879241e+01 754
-1.978599e+01 1.301111e+00 1.804810e+01 763
4.575405e+00 -1.129349e+01 3.734534e+00 776
3.768088e+01 -7.726232e+00 1.263017e+01 783
-4.937873e+01 -1.137134e+01 1.540155e+01 787
-1.569588e+01 6.067876e+00 8.139334e+00 791
-1.626729e+00 -2.417846e+01 1.195516e+01 792
-2.097671e+01 1.846799e+01 2.251656e+01 793
5.058114e+00 1.585353e+01 2.695427e+01 797
1.182556e+01 -4.180099e+00 2.808217e+01 814
1.903439e+01 -9.833435e+00 2.660506e+01 823
-4.994948e+01 1.490752e+01 2.022419e+01 839
3.457865e+01 1.039113e+00 1.782178e+01 841
-4.167364e+01 -1.814010e+01 4.466458e+00 848
2.887021e+01 4.906228e+00 2.635611e+01 852
5.881015e+00 -5.952906e+00 5.252172e+00 853
1.502875e+01 7.697184e+00 1.128688e+01 860
1.933776e+01 -5.405516e+00 3.254454e+00 862
1.709169e+01 1.341253e+01 9.728315e-02 865
2.322295e+00 1.277741e+01 1.605072e+01 871
-8.607509e+00 -2.029531e+01 1.911775e+01 879
1.002887e+01 -1.690239e+01 2.350869e+01 890
-3.275030e+01 2.132321e+01 4.422259e+00 891
-2.755583e+01 1.918549e+01 2.869044e+01 892
-2.577029e+01 1.113512e+01 1.997520e+01 893
2.363653e+00 9.427555e-01 1.877260e+01 899
2.085255e+01 -2.419704e+01 1.499126e+01 901
4.194263e+01 5.803630e+00 1.251942e+00 903
-2.104664e+01 1.540131e+01 2.962745e+01 904
-2.422696e+01 8.737664e+00 1.702317e+01 918
-3.368506e+01 -6.236106e+00 2.455748e+01 928
-2.935663e+01 -1.049592e+01 1.424338e+01 961
-1.421011e+01 -6.132555e+00 2.826683e+01 973
1.801364e+01 7.782739e-01 2.186316e+01 980
-2.435294e+00 -1.398734e+01 2.146204e+00 984
2.930545e+01 1.676412e+01 2.702861e+01 994
-3.126575e+01 -9.248575e+00 6.867924e+00 1000
-4.831455e+01 -3.518285e+00 9.246917e+00 1006
-2.703175e+01 8.893228e+00 2.376311e+01 1010
-9.857213e+00 1.296833e+01 2.726492e+01 1013
-4.723691e+01 1.429607e+01 2.012814e+01 1018
-3.470890e+01 6.259308e+00 2.869293e+01 1019
5.300200e-01 -1.474645e+01 1.798741e+00 1024
-1.895333e+01 -9.105148e+00 2.383095e+01 1033
1.359578e+01 2.155784e+01 9.493584e+00 1054
4.624660e+00 -7.969572e+00 2.862488e+01 1056
-3.314720e+01 2.380248e+01 4.279333e+00 1058
-4.911601e+01 -1.674484e+01 2.007261e+01 1060
-4.425530e+01 3.735558e+00 5.313629e+00 1073
2.513408e+01 2.211206e+01 5.471605e+00 1091
2.709263e+01 1.923420e+01 5.925091e+00 1096
-5.129326e+00 -1.267082e+01 2.483542e+01 1100
5.166486e+00 1.028032e+01 1.012861e+01 1119
2.305779e+01 1.741229e+01 7.450270e+00 1133
-2.466070e+01 1.998035e+01 1.554544e+01 1137
2.002359e+01 1.221699e+01 3.728834e+00 1140
-2.983679e+01 -1.398191e+01 1.618446e+01 1147
1.952158e+01 1.631868e+01 1.410645e+01 1168
-4.294955e+01 -1.760164e+00 1.097829e+01 1174
-1.075918e+01 -2.316560e+01 5.666717e+00 1176
2.904258e+01 1.020407e+01 7.083189e+00 1183
-3.705730e+01 -2.084232e+01 8.653796e+00 1193
-2.454808e+01 -2.179390e+01 1.226580e+01 1196
-4.617720e+01 1.195535e+00 1.815027e+01 1198
4.963408e+01 4.296673e+00 2.294371e+01 1210
-4.404249e+01 1.562012e+01 2.167342e+01 1222
6.560484e+00 1.781539e+01 3.924450e+00 1226
-1.132228e+01 1.333074e+01 1.859571e+01 1230
-4.205110e+01 -1.669850e+01 1.411738e+00 1232
2.896628e+01 1.561277e+00 6.488348e+00 1238
4.779587e+01 -2.901341e+00 1.178802e+01 1242
-1.392380e+00 -1.115907e+01 2.296613e+00 1250
-4.740847e+01 -1.836814e+01 4.201980e+00 1257
7.158869e-01 1.579604e+01 7.577480e-01 1260
3.908401e+01 5.422327e+00 2.456550e+01 1273
-2.604804e+01 -5.475172e+00 1.190570e+00 1278
2.800133e+01 -9.310471e+00 1.896665e+00 1284
-1.195216e+01 5.398812e+00 2.420479e+01 1286
3.328746e+01 9.535584e+00 1.516616e+00 1292
-8.514059e+00 7.984300e+00 2.981537e+01 1296
1.004419e+00 1.515174e-02 2.856891e+01 1312
3.235945e-01 -5.419798e+00 2.151330e+01 1323
-1.450211e+01 -2.240501e+01 2.344091e+01 1326
-1.761131e+01 -2.079197e+01 2.306960e+01 1332
3.352716e+01 -2.140641e+01 2.395799e+01 1333
-4.338347e+01 1.824584e+00 1.801541e+01 1334
2.239820e+01 -1.850420e+01 1.552866e+01 1337
-1.661891e+01 3.267266e+00 3.079898e+00 1340
-3.994290e+00 -1.536481e+01 2.908078e+01 1342
4.020518e+00 4.631172e+00 2.115587e+01 1346
2.763571e+01 1.800358e+01 1.592968e+01 1350
1.374154e+01 -5.886226e+00 2.810332e+01 1351
3.957005e+01 7.935440e-01 1.835793e+01 1352
-1.862656e+00 -4.662897e+00 1.364374e+01 1356
1.149554e+01 -6.066157e+00 1.511950e+01 1362
-4.113477e+01 5.245596e+00 1.553645e+01 1374
3.594740e+01 7.805410e+00 1.208036e+01 1375
3.576829e+01 1.044487e+01 1.397816e+01 1382
2.017586e+01 -2.111451e+00 1.999426e+01 1385
1.514657e+00 -2.398755e+01 1.573485e+01 1395
-3.118483e+01 -2.479454e+01 2.244823e+01 1403
1.725466e+01 1.237231e+01 1.352217e+01 1415
1.484660e+01 -1.837815e+01 1.926421e+01 1420
-4.734832e+00 1.995654e+01 6.404523e+00 1421
2.205869e+01 -1.818641e+01 1.937874e+01 1423
2.195753e+01 -1.203949e+01 8.964028e+00 1442
-4.675483e+01 2.336752e+01 1.588729e+01 1445
1.120876e+01 5.469023e-01 1.824926e+01 1451
1.154545e+01 8.909038e+00 1.429795e+01 1455
3.739581e+01 -9.125406e+00 1.566082e+00 1460
1.307491e+01 -1.682054e+01 1.919703e+01 1470
-1.804114e+01 -5.266479e+00 4.269990e+00 1471
-2.376670e+01 -8.858195e+00 2.242605e+01 1472
3.905254e+01 -8.994685e+00 1.435870e+01 1474
3.139865e+00 -1.469878e+01 1.531655e+01 1478
-4.023878e+01 1.782742e+01 2.335630e+01 1479
-1.473785e+01 -1.042518e+01 1.138192e+01 1493
3.005199e+01 -1.513325e+01 1.260665e+01 1496
-3.423439e+01 1.327654e+01 1.706369e+01 1502
2.060210e+01 1.834778e+01 1.712007e+01 1514
2.459475e+00 -1.253912e+01 2.895126e+01 1516
3.723117e+01 -2.863995e+00 7.945781e-02 1517
-2.787918e-01 2.150041e+01 2.150197e+01 1518
-1.023145e+01 -1.851897e+01 7.706979e+00 1523
4.965856e+01 -1.765205e+01 2.883931e+01 1531
-4.696106e+01 -9.944471e+00 1.309047e+01 1543
-2.279779e+00 1.733004e+01 2.936338e+00 1546
3.393028e+01 -3.562465e+00 7.990789e+00 1551
-4.395054e+01 1.163971e+01 2.451207e+01 1562
1.189420e+01 1.798196e+01 2.873277e+01 1576
-2.930307e+01 1.103269e+01 2.273798e+01 1580
-3.678626e+01 1.557648e+01 2.176140e+01 1582
-1.447572e+00 -1.185992e+01 2.043048e+01 1589
-2.334409e+01 2.166910e+01 2.990359e+01 1591
-1.401887e+01 2.359129e+01 2.710499e+01 1595
7.754667e-01 9.828246e+00 2.499167e+01 1598
1.736234e+01 2.206739e+01 1.653280e+01 1606
6.884598e+00 -9.689712e+00 2.313109e+01 1615
2.253467e+01 -1.157195e+01 4.337497e+00 1617
3.483923e+01 -5.974954e+00 1.121296e+01 1620
-3.833873e+00 1.155347e+01 6.778071e+00 1623
2.651822e+01 2.217815e+01 2.365637e+01 1642
-7.682082e-01 -3.485935e+00 1.691160e+01 1655
-3.716298e+01 1.659609e+01 3.964936e+00 1667
9.208390e+00 -2.174172e+01 2.037538e+01 1669
9.894011e+00 -7.211184e+00 1.664164e+01 1687
-3.816502e+01 -1.034023e+01 1.214391e+01 1701
2.702889e+01 1.603485e+01 1.927453e+01 1709
-4.187351e+01 7.786206e+00 1.212502e+01 1724
3.136512e+01 1.186737e+01 1.762223e+01 1735
6.049468e+00 7.477367e+00 1.087126e+01 1743
2.198451e+01 4.703005e+00 1.849068e+01 1744
3.427943e+01 8.391723e+00 4.156307e+00 1752
4.895712e+01 1.183633e+01 1.489025e+01 1754
-3.910275e+01 2.315494e+01 2.196041e+01 1756
1.480098e+01 1.027712e+01 2.222078e+01 1757
-4.031322e+01 1.750922e+01 5.464365e-02 1761
2.568129e+01 -1.636363e+00 8.046406e-01 1763
2.613628e+01 -2.194732e+01 2.849840e+01 1772
-4.425598e+01 1.784159e+00 1.925730e+01 1773
-4.285778e+00 -2.014221e+01 1.738269e+01 1777
3.825128e+01 -1.194552e+01 1.255225e+00 1779
1.969990e+01 1.435948e+01 1.108430e+01 1784
-3.377707e+01 -9.243770e+00 2.102462e+01 1794
-2.921831e+01 -2.260048e+01 2.280671e+01 1810
-4.197451e+01 8.599504e+00 1.101846e+01 1811
4.271245e+01 -6.395250e+00 2.750658e+01 1862
-2.404556e+01 4.503275e+00 1.480891e+01 1874
1.452303e+01 1.380739e+01 1.498881e+00 1876
3.688860e+01 -2.378591e+01 1.429754e+01 1877
2.920145e+01 2.188914e+01 1.800207e+01 1888
4.791553e+01 1.852367e+01 2.416332e+00 1895
-1.378933e+01 1.835587e-01 7.482748e+00 1906
2.932162e+01 -1.388203e+00 6.997829e+00 1912
-2.926993e+01 1.885144e+01 2.082975e+01 1920
1.542217e+01 1.831889e+01 1.834840e+01 1931
-4.122716e+01 2.384981e+01 3.918091e+00 1933
3.779301e+00 4.692877e+00 2.129333e+01 1968
-1.846594e+01 3.538286e+00 1.237199e+01 1972
-2.535210e+01 2.335214e+01 7.983440e-01 1973
4.685369e+01 1.813576e+00 1.444245e+01 1984
6.748787e+00 -9.693092e+00 1.903695e+01 1987
4.988352e+01 -2.448378e+01 1.020789e+01 1988
2.274513e+01 5.206150e+00 2.556083e+01 1990
1.898831e+01 1.316121e+01 7.602213e+00 1997
-2.134294e+01 -5.380550e+00 2.303277e+01 2002
1.492586e+01 1.396297e+00 2.899250e+01 2009
3.902760e+01 -2.232777e+00 2.671430e+01 2042
2.049854e+01 1.321801e+01 1.328697e+01 2044
-6.033064e+00 -1.674017e+01 2.669552e+01 2054
9.440564e+00 7.982248e+00 8.692165e+00 2057
1.942157e+01 2.146833e+01 1.987353e+01 2062
-1.260889e+01 9.932932e+00 1.766690e+01 2063
2.791336e+00 9.603405e+00 8.868653e+00 2091
-4.482759e+01 5.790425e+00 8.640047e+00 2092
-2.454802e+01 -1.604603e+01 1.828182e+01 2093
3.083341e+01 7.564638e+00 2.681389e+00 2094
-3.180632e+01 1.958675e+01 2.821095e+01 2109
-8.181884e+00 -6.139420e+00 7.026797e+00 2118
-2.762662e+01 2.486453e+01 4.675372e+00 2126
4.669043e+01 9.881696e+00 4.039397e+00 2128
1.472206e+01 -1.532876e+01 1.880962e+01 2129
9.323605e-02 2.045914e+01 2.459917e+01 2137
1.225447e+01 2.697528e+00 6.688578e+00 2142
4.582008e+01 9.946227e+00 1.455175e+01 2145
2.481621e+01 2.314692e+01 2.537598e+01 2148
-7.694424e+00 -1.534465e+01 1.348343e+01 2153
3.676327e+01 1.446437e+01 1.386467e+01 2154
-1.378059e+01 1.930487e+01 1.662583e+01 2159
1.291111e+01 -1.258214e-01 1.369724e+01 2166
-3.975705e+01 7.930631e+00 1.025689e+01 2191
1.136195e+01 2.315225e+01 1.709728e+00 2200
-5.646978e+00 -8.733902e+00 1.243706e+01 2210
-3.607197e+01 7.472156e+00 2.576495e+01 2217
1.621795e+01 -4.868132e+00 2.564997e+01 2227
1.116739e+01 -1.326178e+01 2.902063e+01 2233
3.492480e+01 2.474808e+00 3.990959e+00 2234
4.053632e+01 -1.897422e+01 2.514046e+01 2238
-2.737501e+01 9.294939e+00 2.439447e+01 2240
-3.537370e+01 -1.160140e+01 2.419650e+01 2244
-6.566230e+00 1.820776e+01 1.112568e+01 2252
-3.945894e+01 -1.258921e+01 4.077311e+00 2253
4.785897e+01 -2.438534e+01 2.025725e+01 2258
-4.108269e+01 9.280545e+00 1.163051e+01 2269
3.688589e+01 -6.495265e-01 5.824074e+00 2270
2.406074e+01 1.842925e+01 2.569732e+01 2287
1.125523e+01 9.876089e+00 1.626668e+01 2292
-3.148729e+01 1.253888e+01 2.124317e+00 2297
-1.607879e+01 -6.943127e+00 2.865739e+01 2307
2.905687e+01 1.090863e+01 8.884585e+00 2314
3.824481e+01 8.568143e+00 1.715728e+01 2334
1.544428e+01 7.251580e+00 2.944663e+01 2357
-7.642247e+00 2.376493e+01 2.661748e+01 2361
-1.678422e+01 9.717776e+00 2.436810e+01 2372
-1.964328e+01 -1.535484e+01 5.206830e-01 2386
-4.429602e+01 1.982775e+01 1.276730e+01 2391
8.270570e+00 2.294426e+01 2.472791e+01 2399
3.888024e+01 -9.648466e+00 2.527338e+00 2408
9.205465e+00 2.271478e+01 1.164819e+00 2425
-2.798473e+01 -8.492330e+00 2.389794e+01 2442
2.688403e+01 1.714505e+01 2.368722e+01 2451
-8.951602e+00 -1.576189e+01 2.180045e+01 2452
-1.523153e+01 -1.696168e+01 1.839083e+01 2454
4.767113e+01 -1.596244e+01 2.812782e+01 2494
-2.339200e+01 -7.374784e+00 1.684268e+01 2520
4.515399e+01 -2.254944e+01 1.592018e+01 2526
-2.690409e+01 1.023998e+00 1.162939e+00 2528
2.653945e+01 -1.829686e+01 2.496173e+01 2542
-2.569187e+01 8.180380e+00 2.238958e+01 2544
-1.330128e+01 1.184895e+01 1.587865e+01 2556
-1.001498e+01 -1.305825e+00 2.642872e+01 2566
5.314225e-02 -1.228759e+01 5.479508e+00 2571
-6.489315e+00 9.829213e+00 1.492048e+01 2586
2.639359e+01 -8.148548e+00 2.262791e+01 2587
-3.258211e+01 2.227725e+01 2.990722e+01 2594
4.547658e+01 -2.894227e+00 1.447178e+01 2595
5.983015e-01 1.439847e+01 7.824679e+00 2597
1.146700e+01 1.860310e+01 1.215313e+01 2598
-7.921902e+00 -2.198057e+01 1.323103e+00 2607
-1.242681e+01 -2.238921e+01 2.592923e+01 2633
3.210587e+01 2.106894e+01 2.725067e+01 2637
2.475406e+01 2.272987e+01 1.255517e+01 2640
2.043945e+01 -1.299446e+01 1.091613e+01 2644
-9.344275e+00 -9.402269e+00 4.314290e+00 2646
-4.268085e+01 -1.805505e+01 9.094588e+00 2649
-5.802496e+00 -1.687163e+01 2.716858e+01 2651
-4.127794e+01 -1.379109e+01 1.412969e+01 2653
-3.776192e+01 5.011358e+00 2.340909e+01 2670
-3.741986e-01 1.099639e+01 2.837272e+00 2704
-1.591129e+01 -1.947270e+01 1.484548e+01 2710
4.702346e+01 -4.067630e+00 2.680337e+01 2713
2.532012e+01 -6.740474e-01 1.154760e+00 2717
3.760166e+01 1.715577e+01 2.137513e+01 2731
4.740194e+01 -1.352663e+01 2.770700e+01 2734
2.851766e+01 -1.649922e+01 1.862384e-02 2739
-2.459444e+01 8.862209e+00 1.332978e+01 2752
-4.848007e+01 2.459455e+00 2.858269e+01 2755
-3.845810e+01 6.133592e+00 1.768762e+01 2760
-1.279343e+01 -2.305936e+01 2.982115e+01 2765
4.586855e+01 1.180463e+01 1.354156e+00 2769
-4.900031e+01 -4.422339e+00 2.984676e+01 2770
4.558863e+01 7.823616e+00 2.421634e+01 2771
-1.806998e+01 -2.155203e+01 2.793477e+01 2772
2.664739e+01 -1.843660e+01 3.315738e+00 2782
-2.064386e+01 4.423159e+00 1.175527e+00 2795
2.128646e+01 -9.047817e+00 2.386967e+01 2800
3.433148e+00 -2.293645e+01 8.754191e+00 2814
1.761052e+01 1.784211e+01 2.725204e+01 2816
-3.390471e+01 2.235953e+01 4.249672e+00 2836
-3.203924e+01 -1.764671e+00 1.063003e+01 2848
-4.725449e+01 5.166750e+00 2.690479e+01 2860
-3.875743e+01 1.774625e+00 2.519417e+01 2866
-7.270847e+00 9.044598e+00 4.695844e+00 2868
-4.170850e+01 -5.344158e+00 1.460868e+01 2874
-1.575867e+01 -2.245231e+01 1.552522e+00 2877
2.031732e+01 1.156350e+00 3.823336e+00 2879
4.866727e+01 2.187054e+01 2.371300e+01 2883
5.724486e+00 1.522685e+01 6.988400e+00 2906
-8.789431e+00 1.029262e+01 2.405327e+01 2907
3.648616e+01 1.905699e+01 2.082352e+00 2923
-2.330471e+01 -1.935636e+01 2.510776e+01 2926
-2.531485e+01 -6.544557e-01 1.301704e+01 2940
-2.577682e+01 1.911289e+01 1.911657e+01 2943
4.442551e+01 -1.346563e+01 1.922711e+01 2952
2.788996e+01 -5.063211e+00 2.198903e+00 2956
7.924513e+00 -2.170815e+01 1.129955e+01 2970
-4.708309e+01 -2.332204e+00 4.344682e+00 2971
2.909370e+01 -1.146975e+01 2.817199e+01 2982
1.586773e+01 1.214597e+01 1.548833e+01 2990
-3.128402e+01 1.681512e+01 1.966190e+01 2995
-1.996112e+01 5.760524e+00 9.157010e+00 2998
-1.272523e+01 1.357277e+00 1.302146e+00 3008
9.951446e+00 5.983261e+00 2.976570e+01 3025
-3.702956e+01 6.119307e+00 2.732410e+01 3028
3.316660e+01 -2.483930e+01 1.158518e+00 3044
1.829896e+01 1.763282e+01 2.398855e+01 3059
-4.337954e+01 -1.998214e+01 2.018998e+01 3067
5.519938e+00 -1.000052e+01 2.271615e+01 3081
2.119543e+01 1.238070e+00 1.961047e+01 3083
-2.271103e+01 -1.102713e+01 1.061540e+01 3089
-3.403722e+01 -1.872859e+01 1.648742e+01 3103
8.992202e+00 1.024737e+01 1.036337e+01 3104
-2.574277e+01 1.621781e+01 2.938779e+01 3120
1.870076e+01 1.728525e+01 8.200354e+00 3123
-1.251695e+01 -1.113260e+01 2.883079e+01 3134
-4.720056e+01 -1.027355e+01 1.948996e+01 3140
2.773431e+01 -2.080215e+00 6.789933e-01 3156
4.687946e+01 -8.729429e+00 2.572425e+00 3157
-4.073374e+01 -1.672821e+01 3.247897e+00 3198
1.311524e+01 -7.240640e+00 2.758027e+01 3200
4.402227e+01 2.232309e+01 2.782316e+01 3218
-2.193244e+01 1.586861e+01 2.331588e+00 3223
-1.222949e+01 1.029388e+00 1.340227e+01 3244
3.206686e+01 5.693079e+00 2.043382e+01 3248
2.671665e+01 -1.326692e+01 2.371567e+01 3254
-4.453626e+01 -1.984861e+01 2.567329e+00 3258
4.624260e+01 -3.361688e+00 1.088750e+01 3259
6.235882e+00 2.088817e+01 2.749677e+01 3262
4.970077e+01 -4.057175e+00 1.950724e+01 3263
3.259304e+01 -1.681579e+01 4.225270e+00 3273
-3.763408e+00 -2.066897e+01 2.386736e+01 3285
4.305055e+01 -1.655069e+01 3.728511e+00 3308
-3.674525e+00 -2.478679e+01 1.180883e+01 3309
2.734129e+01 1.584952e+01 5.570809e+00 3317
-3.876206e+01 -7.130392e+00 6.277474e-01 3321
-3.506986e+01 -2.122759e+01 2.888013e+01 3323
2.458653e+01 1.040833e+01 3.525665e+00 3333
3.693881e+01 1.313717e+01 1.416964e+01 3347
2.166589e+01 -9.975797e+00 4.164078e+00 3348
-1.962085e+01 -2.157198e+01 4.381234e+00 3353
-1.435511e+01 -2.065434e+01 2.815977e+01 3357
3.844876e+01 -6.897238e+00 1.015215e+01 3366
-2.203665e+01 1.191173e+01 9.396334e+00 3375
4.317751e+01 -6.333907e+00 1.381942e+00 3398
-3.563904e+01 1.729815e+01 6.377472e+00 3402
-3.943055e+01 1.159378e+01 2.752331e+01 3415
-2.075350e+01 1.702792e+01 2.769268e+00 3431
6.415465e-01 -7.958672e+00 2.120993e+01 3433
3.189762e+01 -1.465406e+01 2.923688e+01 3445
-3.541508e+01 -2.210214e+01 2.215612e+01 3447
3.487302e+01 1.667223e+01 2.162079e+01 3456
-2.145751e+01 -9.201584e+00 2.021941e+01 3460
-4.192083e+01 2.048697e+01 2.473477e+01 3461
4.957669e+01 -2.301063e+01 1.924486e+01 3463
3.964550e+00 8.506627e+00 2.968514e+01 3464
-3.309182e+01 -1.172854e+00 1.646378e+01 3484
2.149494e+01 -2.370782e+01 3.987366e+00 3487
2.713109e+01 -6.109146e+00 2.199142e+01 3488
2.547949e+01 1.518563e+00 8.387245e+00 3491
3.682462e+01 -4.225914e+00 1.754965e+01 3492
-8.073303e+00 3.297800e+00 2.673922e+01 3498
8.804736e+00 -1.209191e+01 1.277609e+01 3503
-3.505057e+01 -2.330297e+01 2.213111e+01 3526
4.333254e+00 1.591589e+01 2.179637e+01 3527
-4.046133e+01 -4.511721e+00 9.826518e+00 3532
3.327428e+01 -6.557692e-01 7.057551e+00 3535
-2.913366e+01 -1.707728e+01 2.215719e+01 3538
-2.397784e+01 -7.209472e+00 1.559750e+01 3562
4.994202e+01 -1.751175e+01 1.557485e+01 3578
2.592639e+01 8.592904e+00 9.981548e+00 3593
-2.807817e+01 -2.419268e+01 6.004779e+00 3604
-1.999755e+01 -1.553879e+01 1.402004e+01 3612
1.740769e+01 -1.091207e+01 2.347355e+01 3614
4.383772e+01 -5.820948e+00 1.417215e+01 3621
-4.534145e+01 -1.603410e+01 2.096126e+01 3626
-3.454956e+01 -1.298924e+00 1.177557e+01 3639
-4.741431e+01 -1.848271e-01 2.371430e+01 3643
-2.865590e+01 9.890394e+00 2.516387e+00 3652
-5.775680e+00 -4.904245e-01 1.124872e+01 3659
-2.088636e+01 -1.498292e+01 1.475995e+01 3663
2.016967e+01 2.034848e+01 1.935528e+01 3669
4.718136e+01 -2.213255e+00 1.445164e+00 3675
4.449621e+01 -5.064179e+00 2.095182e+00 3677
5.898688e-01 -1.728086e+01 4.849629e+00 3679
-2.916657e+01 5.540495e+00 1.792708e+01 3682
-3.600696e+01 -1.245075e+01 2.117623e+01 3685
-3.139915e+01 7.111109e-01 1.853227e+00 3686
4.361165e+01 -1.219580e+01 8.105457e+00 3713
4.942999e+01 -3.126014e+00 2.567084e+01 3717
-1.648464e+01 1.126947e+01 1.945479e+01 3727
-2.004616e+01 -1.168380e+01 2.915157e+01 3729
-2.461084e+01 -2.404962e+01 9.627553e+00 3730
2.392768e+01 -5.734510e-01 2.097498e+01 3733
-3.506291e+00 -1.567307e-01 7.363854e+00 3734
2.792928e+01 1.580650e+01 2.904235e+01 3736
2.957113e+01 4.522743e-01 8.234975e+00 3741
1.597698e+01 1.258261e+01 2.835759e+01 3747
-4.544987e+01 -1.471901e+01 2.883953e+01 3755
-3.744497e+00 -1.526664e+01 1.523390e+01 3758
-1.711086e+01 -9.726115e+00 2.652089e+01 3760
-4.372811e+01 2.488669e+00 2.977356e+01 3761
-1.882517e+00 -1.818276e+01 1.589827e+01 3762
-4.404079e+01 -6.258566e+00 2.403256e+01 3766
4.085002e+01 1.814884e+01 2.486943e+01 3771
-3.051302e+01 -4.122214e+00 2.472111e+01 3780
4.629273e+01 2.927870e+00 8.022029e+00 3788
-7.546202e+00 -1.312351e+01 2.327075e+00 3798
2.659384e+01 -1.735672e+01 2.724632e+01 3800
1.047223e+01 -1.586020e+01 1.465383e+01 3801
3.031310e+01 2.094356e+01 1.824135e+01 3804
-2.163750e+01 9.084035e+00 1.067844e+01 3820
3.980657e+01 -6.715327e+00 2.953690e+00 3836
1.122755e+01 -1.242747e+01 4.042918e+00 3844
-3.736840e+01 1.302624e+01 2.541767e+01 3849
-1.862912e+01 -4.339474e+00 1.645089e+01 3854
3.538912e+01 1.472869e+01 1.928433e+01 3856
3.981892e+01 1.997939e+01 1.894247e+00 3857
7.132759e+00 2.162860e+01 1.666842e+01 3858
3.671627e+01 1.473068e+01 1.489311e+01 3859
4.934609e+01 1.842217e+01 1.792051e+01 3880
3.365710e+01 -5.906013e+00 8.643279e+00 3889
1.703953e+01 -1.959867e+01 1.498073e+00 3910
6.267445e+00 -2.209934e+01 2.297220e+01 3911
4.686262e+01 -2.136997e+01 1.937924e+01 3929
4.860563e+01 -4.645502e+00 2.769704e+01 3930
-2.787213e+01 2.176020e+01 2.310624e+01 3935
3.632880e+01 -3.049581e+00 4.597895e+00 3953
1.730436e+01 5.503980e+00 2.538345e+01 3957
3.248764e+01 1.826837e+01 2.530414e+01 3963
5.425111e+00 7.540462e+00 1.528380e+01 3969
2.785589e+01 1.944378e+01 7.974279e-01 3973
-3.375640e+01 -1.275518e+01 2.423983e+01 3984
-1.345731e+01 -9.108001e+00 1.904270e+01 3989
-3.137428e+01 -5.104135e-01 6.435931e+00 4011
3.971605e+01 1.826760e+01 1.195219e+01 4016
1.042599e+01 -1.468040e+00 2.061455e+01 4017
-1.456194e+01 -7.165407e+00 1.092120e+01 4020
-4.394918e+01 9.351093e+00 2.068474e+01 4029
3.885129e+01 -9.047388e+00 2.925189e+01 4034
-3.956731e+00 8.795316e+00 1.663325e+01 4036
8.695413e-01 -2.180526e+00 5.095819e+00 4037
-1.243804e+01 -7.127573e+00 8.293141e+00 4039
-1.391814e+00 2.647438e+00 2.724998e+01 4046
-4.503641e+01 -9.782181e+00 1.197935e+01 4057
2.016428e+01 8.352431e+00 2.557199e+01 4066
-3.703571e+01 -7.643392e+00 9.448013e+00 4079
2.781736e+01 1.430056e+01 7.897626e+00 4080
-3.025231e+01 5.229453e+00 1.636528e+01 4088
-2.329635e+01 -2.257858e+01 1.073696e+01 4104
4.398035e+01 -1.557919e+01 2.281143e+01 4106
3.664050e+01 -2.441017e+01 7.174972e+00 4120
-4.065058e+01 2.499934e+01 5.405898e+00 4134
2.576163e+01 1.869586e+01 1.356023e+01 4144
-4.560788e+01 1.531711e+01 2.460422e+01 4150
-2.362999e+01 -3.600731e+00 1.359862e+01 4152
4.829879e+01 1.449132e+01 2.362674e+01 4161
4.129928e+01 -4.729634e+00 5.502570e+00 4170
1.092972e+01 4.548860e+00 2.032142e+01 4172
-4.250153e+00 -3.138313e+00 1.490204e+01 4178
1.871235e+01 1.623694e+01 1.269186e+01 4183
2.049123e+00 1.075188e+01 2.893025e+01 4184
2.589503e+01 -1.491103e+01 3.223356e+00 4194
-1.324609e+01 7.813540e+00 2.631019e+01 4201
1.994102e+01 -2.437502e+01 1.395412e+01 4209
-2.144068e+00 -2.302615e+01 4.587613e+00 4211
1.495725e+01 2.157182e+01 2.553324e+01 4239
-4.729350e+01 -1.859227e+01 2.089506e+01 4244
2.014411e+01 1.717370e+01 4.387581e+00 4245
3.724113e+01 7.602321e+00 2.109527e+00 4248
2.316620e+01 -1.958906e+01 1.591941e+01 4252
-1.167961e+01 -2.409895e+00 2.436990e+01 4256
-6.864423e+00 1.419528e+01 6.793581e+00 4265
2.078318e+00 2.134241e+01 2.348580e+01 4266
2.409991e+01 8.395694e+00 2.451555e+01 4268
4.299531e+01 -1.720643e+01 2.468607e+01 4302
-3.682480e+01 5.982536e-01 2.419450e+01 4308
-2.882707e+01 2.135998e+00 2.856713e+00 4314
3.852718e+01 -7.898375e+00 2.486754e+01 4318
3.681350e+01 7.860641e+00 1.638844e+01 4325
-4.831578e+01 -5.202810e+00 1.768020e+01 4329
-1.270891e+01 -1.506745e+01 2.456435e+01 4332
1.758649e+01 -1.193023e+01 9.188535e+00 4340
-9.270035e+00 3.877461e+00 2.257498e+01 4347
2.744438e+01 9.488236e+00 2.985035e+01 46884
-2.837237e+01 -5.292098e-01 5.970334e-01 4351
1.132956e+01 -5.359695e+00 1.330380e+01 4352
-1.861686e+01 9.729943e+00 2.773112e+01 4353
1.754954e+01 1.660806e+01 2.835594e+00 4359
-3.967050e+01 1.593346e+01 1.339898e+01 4360
-2.131617e+01 8.630019e+00 2.513064e+00 4370
4.454830e+01 -8.842000e+00 4.063933e+00 4378
-2.567929e+01 1.943627e+01 1.070744e+01 4389
1.706630e+01 -2.063085e+01 6.810798e+00 4395
1.045463e+01 1.597814e+01 2.325211e+01 4396
-1.227751e+01 2.140448e+01 1.907620e+01 4402
5.649012e+00 -1.615909e+00 1.877099e+01 4404
4.283117e+01 -9.200324e+00 2.862949e+00 4408
4.998484e+01 -1.959002e+01 2.182084e+01 4409
1.288321e+01 9.789155e+00 8.179555e-01 4423
-1.437842e+00 -2.759807e+00 2.719743e+01 4432
-2.609060e+01 1.454086e+01 1.830338e+01 4434
-3.465529e+01 2.895305e+00 1.469151e+01 4435
2.009179e+01 1.191876e+01 1.411847e+01 4448
-2.245676e+01 1.205231e+01 2.810343e+01 4453
-4.178654e+01 8.376185e+00 2.473212e+01 4462
-1.216693e+01 1.916523e+01 2.575192e+01 4470
-1.473565e+01 2.307716e+01 4.933382e+00 4480
2.481247e+01 2.116128e+01 1.526132e+01 4481
3.423786e+01 3.431435e+00 2.323881e+01 4485
-1.011418e+01 1.194622e+01 1.352910e+01 4488
1.639626e+01 -7.877355e+00 8.439719e+00 4511
2.145091e+01 3.933567e-01 2.046823e+01 4515
3.140458e+01 2.580017e+00 1.088273e+01 4524
-5.792568e+00 -1.909443e+01 9.717876e+00 4534
4.558934e+00 9.701232e+00 2.421241e+01 4537
-1.396031e+01 1.277296e+01 4.262197e+00 4538
9.056927e+00 8.286780e-01 2.185822e+01 4541
-2.860958e+01 1.292037e+01 1.081132e+01 4544
1.568246e+01 -2.491172e+01 2.221243e+01 4568
-2.924078e+00 1.887950e+01 1.786106e+01 4578
1.787380e+01 1.209500e+01 1.972683e+01 4584
-3.794150e+01 6.401647e+00 1.844456e+01 4602
3.086527e+01 -1.086107e+01 8.678674e+00 4606
4.866692e+01 2.040637e+01 3.692419e+00 4614
4.594823e+01 -8.749084e-01 4.320736e+00 4618
8.719953e+00 -1.957978e+00 8.584197e+00 4620
-3.191433e+01 -5.258775e+00 9.844389e-02 4621
3.935523e+01 -1.202942e+01 7.490668e+00 4623
-4.571704e+00 -2.216765e+01 6.979556e+00 4624
3.830267e+01 2.618406e+00 1.524927e+01 4626
1.189817e+01 -3.089542e+00 1.889817e+01 4635
-3.182905e+01 1.729940e+01 2.726137e+01 4636
-4.013395e+01 2.634406e-01 2.238100e+01 4638
-4.287471e+01 -1.148968e+01 2.018853e+01 4640
4.804084e+01 1.467218e+01 2.934240e+00 4645
-4.211066e+01 -1.494013e+01 2.957873e+01 4646
1.177379e+01 -2.248108e+01 1.634446e+01 4654
2.028458e+01 -5.336642e+00 1.618949e+01 4659
-1.731170e+01 1.786879e+01 2.371250e+01 4660
3.628978e+00 -2.309627e+01 1.272995e+01 4663
-4.044791e+00 2.432158e+00 2.482961e+01 4665
-1.814929e+01 -1.822450e+01 1.664727e+01 4667
1.404862e+01 -2.471558e+00 2.296795e+01 4668
2.740004e+01 -2.483056e+01 2.650631e+01 4673
-4.360124e+01 -2.198229e+01 1.472619e+01 4675
1.072397e+01 2.151441e+01 9.472130e+00 4678
-3.313557e+01 -2.449503e+01 1.205338e+01 4684