Title = Snapshot #28
Variables=X Y Z PartID
Zone I= 6406, F=POINT
9.054396e+00 -1.104980e+01 2.051237e+01 2
9.592615e+00 1.105736e+01 2.779500e+01 8
8.159212e+00 2.101072e+01 2.169089e+01 12
-6.661680e+00 6.107877e+00 9.734272e+00 14
-3.368763e+01 1.934873e+01 9.301802e-01 17
-2.342084e+01 1.250197e+01 8.726467e+00 18
-3.588634e+01 -2.261800e+01 2.008392e+01 21
-1.932627e+01 -1.463670e+01 2.536898e+01 23
1.822649e+01 -1.184407e+01 1.489218e+01 31
-1.663102e+01 -4.852228e-01 4.523923e+00 41
6.274174e+00 7.296931e+00 1.318990e+01 42
-2.226947e+01 5.082777e+00 2.187946e+01 45
-4.465049e+01 -2.137225e+01 2.682824e+01 74
-2.916425e+01 -1.279196e+01 7.932353e+00 80
2.952280e+00 2.379977e+01 1.308468e+01 82
-4.861249e+01 -1.498549e+01 2.495821e+01 83
2.480314e+01 1.333940e+01 7.350278e+00 91
2.912385e+01 -1.156629e+01 2.224237e+01 95
3.224827e+01 1.318001e+01 2.522182e+01 98
4.452309e+01 1.214787e+01 1.692976e+01 135
6.539844e+00 -8.200084e+00 1.638397e+01 137
3.298776e+01 8.849904e+00 1.321931e+01 150
-1.840618e+01 -5.922626e+00 8.514387e+00 158
-2.282415e+01 -2.402449e+01 1.578984e+01 166
2.892209e+01 9.800770e-01 1.517202e+01 171
2.306937e+01 1.304831e+01 5.329914e+00 181
-9.897871e+00 6.334918e+00 1.107414e+01 214
-1.934715e+01 2.088234e+01 6.559074e+00 217
-4.095631e+01 -1.444247e+01 2.554254e+01 219
1.428793e+00 2.613653e+00 1.042445e+01 233
-4.566326e+01 1.543487e+01 8.570463e+00 234
2.210418e+01 -1.514443e+01 5.032895e+00 257
-4.362817e+01 -1.938469e+01 2.045831e+01 279
8.582698e+00 2.513583e+00 1.986753e+01 295
-4.416553e+01 -1.812442e+01 3.834554e+00 309
3.706804e+01 -1.925804e+01 6.624594e+00 317
7.957813e+00 6.733645e-01 2.573536e+01 319
9.148356e+00 -1.856820e+01 2.458084e+01 321
-4.209108e+01 1.506725e+01 1.846407e+01 325
-4.912649e+01 -1.267076e+01 1.630891e+00 329
3.468739e+01 2.052595e+01 2.978201e+01 337
-3.168278e+01 -1.109081e+01 7.902470e+00 340
4.194261e+01 2.370457e+01 2.846389e+01 352
4.524190e+01 1.446659e+01 1.753243e+01 363
-1.293567e+01 2.348458e+01 3.302559e+00 373
4.292215e+01 4.823140e-01 2.899498e+01 375
-2.640312e+01 1.220048e+01 4.455843e+00 396
1.595777e+01 1.036742e+01 1.164094e+01 412
-1.353428e+01 -1.937550e+01 2.405977e+01 425
4.467153e+00 1.419781e+01 5.286712e-01 426
-4.479461e+00 1.510047e-01 8.782014e+00 427
1.999461e+01 1.044308e+01 2.365961e+01 441
1.881124e+01 1.584522e+01 2.694325e+01 443
9.862547e+00 1.976171e+01 2.555423e+01 454
2.451697e+01 1.012231e+01 2.563920e+01 457
-2.645513e+00 2.268039e+01 1.874595e+01 467
3.432373e+01 -1.487457e+01 8.185970e+00 477
3.764101e+01 3.780717e+00 4.855089e+00 504
-8.766133e+00 5.760580e+00 1.494857e+01 505
1.275541e+01 1.367490e+01 2.956259e+01 506
2.799674e+00 -1.338045e+01 1.082193e+01 510
-7.220749e+00 1.079157e+01 8.236403e+00 521
-1.703844e+01 -2.081017e+01 8.621119e+00 524
-3.635045e+01 6.389697e+00 2.521338e+01 536
1.606292e+01 1.876624e+01 2.039993e+00 537
-1.089091e+01 -1.102371e+01 2.822109e+01 555
4.771421e+01 1.451208e+01 2.758960e+01 558
-1.195221e+01 5.152691e+00 2.918832e+01 559
2.770150e+01 1.268798e+01 2.914314e+01 564
3.896154e+01 1.867827e+01 1.655518e+01 578
-6.350846e+00 2.055858e+01 4.154160e-01 581
-4.684640e+01 3.386805e-01 1.638401e+01 582
-2.779057e+01 1.391194e+01 1.370122e+01 588
4.435688e+01 2.151536e+01 1.545268e+01 591
-2.201703e+00 1.570776e+01 2.737528e+01 594
-4.942030e+01 6.499943e+00 3.350096e+00 599
-8.419374e+00 -2.367405e+01 8.456180e-01 611
-4.245137e+01 -7.293230e+00 1.463631e+01 626
4.010373e+01 1.743825e+01 2.644868e+00 629
-8.448896e+00 2.301716e+01 2.655638e+01 634
3.713244e-01 -1.396963e+01 6.518661e+00 636
-1.880918e+01 -7.891925e+00 2.217673e+01 640
1.461860e+01 2.157647e+01 2.994007e+01 642
2.553003e+01 1.593591e+01 2.009426e+00 650
4.831543e+01 -2.383307e+01 9.721000e+00 657
-1.273697e+01 -2.011818e+00 2.104692e+01 661
-4.226384e+01 -7.731375e+00 8.841570e+00 667
1.148262e+01 -1.192003e+01 2.322854e+01 674
2.872184e+01 -1.222715e+01 2.960673e+00 675
5.586968e+00 -1.530828e+01 1.421477e+01 686
4.063582e+01 1.028952e+00 1.980778e+01 687
1.801707e+01 -5.739124e+00 2.751261e+01 688
-2.433979e+01 -1.318261e+01 2.125477e+01 691
-2.736644e+01 -6.446716e+00 8.722118e+00 697
-2.768567e+01 1.602625e+01 1.312262e+01 701
-2.244022e+01 -9.897182e+00 2.672262e+01 702
-1.514526e+01 1.694011e+01 2.527039e+01 704
4.492958e+01 2.183626e+01 1.068833e+01 723
3.174578e+01 1.557937e+01 1.973592e+01 724
1.601911e+01 1.264859e+01 1.119347e+01 729
-5.569597e+00 -8.033789e+00 2.492944e+01 731
-4.760296e+01 -2.129418e+01 7.706806e+00 739
-2.406097e+01 1.490589e+01 1.582543e+01 743
3.382009e+01 1.071238e+01 2.707499e+01 747
-5.134290e+00 -6.983365e+00 4.130853e+00 749
3.131304e+01 -1.191146e+01 1.066415e+01 752
2.028280e+01 1.091963e+01 2.776948e+01 754
-2.311896e+01 9.361454e-01 1.972770e+01 763
2.312634e+00 -1.193144e+01 3.393915e+00 776
-3.803336e+01 -2.442594e+01 5.226125e+00 782
3.534094e+01 -7.700941e+00 1.245167e+01 783
-1.772942e+01 7.023453e+00 7.283290e+00 791
-2.496218e+01 1.809356e+01 2.411719e+01 793
1.904617e+00 1.660487e+01 2.593337e+01 797
9.009907e+00 -3.964848e+00 2.645218e+01 814
1.411734e+01 -1.061919e+01 2.719693e+01 823
3.271659e+01 1.359065e+00 1.710322e+01 841
-4.412372e+01 -1.823251e+01 4.558396e+00 848
2.647847e+01 4.182591e+00 2.592060e+01 852
3.258681e+00 -6.611699e+00 4.631599e+00 853
1.295184e+01 6.608479e+00 1.122798e+01 860
1.689329e+01 -5.695698e+00 3.503805e+00 862
1.675591e+01 1.337690e+01 1.017733e-01 865
-3.382330e-01 1.242156e+01 1.543236e+01 871
-1.111383e+01 -1.979955e+01 1.816476e+01 879
8.079039e+00 -1.649373e+01 2.213767e+01 890
-3.565112e+01 2.150659e+01 4.235765e+00 891
-3.200673e+01 1.957817e+01 2.928686e+01 892
-3.070037e+01 1.121420e+01 1.935007e+01 893
-1.408977e+00 1.411630e+00 1.775164e+01 899
1.843937e+01 -2.315496e+01 1.582924e+01 901
4.021210e+01 5.459383e+00 1.242322e+00 903
-2.711573e+01 9.096041e+00 1.647085e+01 918
-3.682668e+01 -5.654670e+00 2.303391e+01 928
-9.981554e+00 2.430204e+01 2.538616e+01 939
-3.116025e+01 -1.139060e+01 1.198803e+01 961
-6.970417e+00 -7.146374e+00 2.980657e+01 971
-1.782713e+01 -5.697275e+00 2.938050e+01 973
1.729359e+01 -2.477803e+01 1.485833e+01 974
1.588055e+01 4.223972e-01 2.264556e+01 980
-4.561476e+00 -1.378245e+01 2.059234e+00 984
2.571499e+01 1.786150e+01 2.738275e+01 994
-3.297862e+01 -8.949442e+00 6.347379e+00 1000
7.926393e+00 9.487355e+00 2.956920e+01 1005
-3.162757e+01 9.369076e+00 2.259738e+01 1010
-1.375235e+01 1.312305e+01 2.815667e+01 1013
-3.791278e+01 6.279934e+00 2.584246e+01 1019
-1.454154e+00 -1.498232e+01 1.518179e+00 1024
-2.238027e+01 -9.970615e+00 2.430150e+01 1033
4.787639e+01 6.990996e+00 2.319359e+01 1046
1.062937e+01 2.233460e+01 9.079943e+00 1054
1.424428e+00 -7.606403e+00 2.704456e+01 1056
-3.592382e+01 2.351948e+01 4.017576e+00 1058
-4.779921e+01 3.009304e+00 4.510413e+00 1073
2.221882e+01 2.251854e+01 4.855706e+00 1091
2.472667e+01 1.957116e+01 5.486601e+00 1096
-9.562415e+00 -1.155194e+01 2.532899e+01 1100
3.436268e+00 1.084129e+01 9.526860e+00 1119
2.108919e+01 1.732671e+01 7.044314e+00 1133
-2.735744e+01 1.973479e+01 1.488005e+01 1137
1.813548e+01 1.188867e+01 3.343174e+00 1140
-3.133900e+01 -1.628136e+01 1.477486e+01 1147
1.725425e+01 1.569228e+01 1.417440e+01 1168
-4.697100e+01 -2.207193e+00 9.790419e+00 1174
-1.359815e+01 -2.407113e+01 6.270458e+00 1176
2.614832e+01 1.025903e+01 6.986050e+00 1183
-4.134104e+01 -2.191027e+01 1.042932e+01 1193
-2.587084e+01 -2.108123e+01 1.187477e+01 1196
-4.860684e+01 6.480671e-01 1.968091e+01 1198
4.562442e+01 5.093932e+00 2.257882e+01 1210
-4.684744e+01 1.527534e+01 2.310687e+01 1222
4.263148e+00 1.798826e+01 3.952733e+00 1226
-1.443505e+01 1.453049e+01 2.029597e+01 1230
-4.394089e+01 -1.665082e+01 1.403237e+00 1232
2.665647e+01 1.279324e+00 5.995937e+00 1238
4.612308e+01 -3.142658e+00 1.187923e+01 1242
-4.423941e+00 -1.071821e+01 2.519413e+00 1250
4.899992e+01 -1.434431e+01 1.300070e+01 1252
-1.610208e+00 1.602286e+01 9.559270e-01 1260
3.571289e+01 5.359054e+00 2.445317e+01 1273
-2.775149e+01 -5.841814e+00 1.304841e+00 1278
2.608200e+01 -9.562310e+00 1.770401e+00 1284
-1.544876e+01 4.573474e+00 2.496808e+01 1286
3.142074e+01 9.775818e+00 1.450733e+00 1292
-2.173152e+00 -5.061992e-01 2.836792e+01 1312
-2.258831e+00 -5.289834e+00 2.052089e+01 1323
-1.914521e+01 -2.316025e+01 2.418741e+01 1326
-2.189199e+01 -2.187280e+01 2.370268e+01 1332
2.953237e+01 -2.066390e+01 2.466651e+01 1333
-4.556253e+01 -2.154450e-01 1.826015e+01 1334
2.100466e+01 -1.866633e+01 1.508266e+01 1337
-1.877211e+01 4.110315e+00 3.989080e+00 1340
-5.720654e+00 -1.441783e+01 2.789203e+01 1342
4.847668e-01 5.113272e+00 2.000552e+01 1346
2.486327e+01 1.672780e+01 1.615280e+01 1350
1.070544e+01 -5.748814e+00 2.672129e+01 1351
3.654289e+01 8.845461e-01 1.851049e+01 1352
-5.299886e+00 -4.773557e+00 1.223021e+01 1356
7.897722e+00 -6.273335e+00 1.468098e+01 1362
-4.428848e+01 5.391400e+00 1.548253e+01 1374
3.371090e+01 8.000363e+00 1.261128e+01 1375
3.262267e+01 1.039440e+01 1.442930e+01 1382
1.811675e+01 -2.571533e+00 2.032684e+01 1385
-1.384534e-01 -2.375998e+01 1.558932e+01 1395
1.552047e+01 1.235640e+01 1.366608e+01 1415
1.251550e+01 -1.851457e+01 1.938518e+01 1420
-7.372180e+00 1.972361e+01 6.473618e+00 1421
1.968294e+01 -1.782592e+01 2.000799e+01 1423
1.942189e+01 -1.166982e+01 8.657044e+00 1442
-4.975404e+01 2.295841e+01 1.817446e+01 1445
4.965486e+01 -4.868315e+00 1.051633e+00 1446
8.627480e+00 -2.427913e-02 1.776385e+01 1451
9.619479e+00 7.716726e+00 1.333995e+01 1455
3.588032e+01 -9.172809e+00 1.570697e+00 1460
1.107368e+01 -1.627316e+01 1.840056e+01 1470
-2.068348e+01 -3.906321e+00 6.099688e+00 1471
-2.870787e+01 -9.189510e+00 2.245753e+01 1472
3.737634e+01 -8.989715e+00 1.394313e+01 1474
-6.554583e-01 -1.382941e+01 1.464684e+01 1478
-4.253282e+01 1.734918e+01 2.209043e+01 1479
-1.664874e+01 -1.130169e+01 1.229122e+01 1493
2.736147e+01 -1.572898e+01 1.189057e+01 1496
-3.750547e+01 1.287285e+01 1.509447e+01 1502
1.839273e+01 1.801146e+01 1.691444e+01 1514
-5.675408e-01 -1.166947e+01 2.778232e+01 1516
3.701220e+01 -3.005982e+00 8.184214e-02 1517
-3.047668e+00 2.124380e+01 2.014518e+01 1518
-1.269129e+01 -1.933333e+01 7.527347e+00 1523
4.600818e+01 -1.839957e+01 2.812592e+01 1531
-4.961703e+01 -9.572584e+00 1.487308e+01 1543
-4.818090e+00 1.798364e+01 3.093796e+00 1546
3.206864e+01 -3.206062e+00 8.062340e+00 1551
-4.718434e+01 1.101039e+01 2.496168e+01 1562
6.776839e+00 1.765290e+01 2.809460e+01 1576
-3.278073e+01 1.204328e+01 2.178054e+01 1580
-3.962716e+01 1.633945e+01 2.039365e+01 1582
4.871186e+01 -1.660607e+01 1.987027e+01 1584
-4.330725e+00 -1.259969e+01 1.992898e+01 1589
-2.857207e+01 2.145957e+01 2.932416e+01 1591
-1.834853e+01 2.383795e+01 2.824676e+01 1595
-3.413424e+00 1.036818e+01 2.524950e+01 1598
1.489904e+01 2.152711e+01 1.606186e+01 1606
4.281704e+00 -8.849997e+00 2.255244e+01 1615
2.070142e+01 -1.193527e+01 4.401649e+00 1617
3.220821e+01 -6.051708e+00 1.108635e+01 1620
-7.014845e+00 1.138454e+01 5.466839e+00 1623
-3.253170e+01 -2.402777e+01 1.196540e+01 1634
2.317514e+01 2.311853e+01 2.344067e+01 1642
-4.243045e+00 -3.861989e+00 1.529646e+01 1655
-4.029342e+01 1.601927e+01 3.674699e+00 1667
6.831452e+00 -2.131933e+01 1.983659e+01 1669
7.651632e+00 -7.629274e+00 1.611465e+01 1687
-3.969664e+01 -9.636510e+00 1.069047e+01 1701
2.428538e+01 1.644151e+01 2.018512e+01 1709
-4.480853e+01 7.559568e+00 1.060813e+01 1724
4.882112e+01 -6.840428e+00 2.722067e+01 1727
2.793240e+01 1.134478e+01 1.868002e+01 1735
3.627510e+00 7.346466e+00 1.009831e+01 1743
1.955254e+01 4.379549e+00 1.889196e+01 1744
3.245182e+01 7.958521e+00 4.015988e+00 1752
4.600048e+01 1.258662e+01 1.445374e+01 1754
-4.098943e+01 2.238982e+01 2.043508e+01 1756
1.111854e+01 9.330805e+00 2.167163e+01 1757
-4.053068e+01 1.756444e+01 5.727472e-02 1761
2.404061e+01 -2.460964e+00 6.482804e-01 1763
2.146081e+01 -2.257452e+01 2.904674e+01 1772
-4.586864e+01 -2.075785e-01 1.991065e+01 1773
-6.806271e+00 -1.941892e+01 1.698854e+01 1777
3.626740e+01 -1.214814e+01 1.162071e+00 1779
4.674731e+01 -1.136994e+01 2.603462e+01 1782
1.780671e+01 1.434251e+01 1.088710e+01 1784
-3.602091e+01 -9.302931e+00 1.895218e+01 1794
-3.333285e+01 -2.216279e+01 2.066711e+01 1810
-4.513807e+01 8.060850e+00 8.644580e+00 1811
1.279902e+01 -2.465448e+01 1.607760e+01 1833
3.914662e+01 -6.428146e+00 2.660992e+01 1862
-2.676789e+01 4.029432e+00 1.584140e+01 1874
1.134454e+01 1.413176e+01 1.686917e+00 1876
3.400307e+01 -2.416395e+01 1.404327e+01 1877
2.693648e+01 2.091054e+01 1.752907e+01 1888
4.636600e+01 1.757847e+01 2.283341e+00 1895
-1.637508e+01 5.662148e-01 8.476424e+00 1906
4.821847e+01 -1.241639e+01 2.443698e+01 1908
2.694426e+01 -1.376908e+00 6.452638e+00 1912
-3.185817e+01 1.727604e+01 1.827323e+01 1920
1.254531e+01 1.841565e+01 1.788589e+01 1931
-4.579375e+01 2.386837e+01 3.859463e+00 1933
4.613726e+01 9.132224e+00 2.584029e+01 1959
2.716141e-01 5.294995e+00 2.017926e+01 1968
-2.016680e+01 3.203926e+00 1.427326e+01 1972
-2.709806e+01 2.311406e+01 1.478613e+00 1973
4.459726e+01 2.051503e+00 1.448569e+01 1984
4.593141e+00 -1.006945e+01 1.780722e+01 1987
4.807562e+01 -2.413123e+01 9.656472e+00 1988
2.050023e+01 5.337557e+00 2.564408e+01 1990
4.744033e+01 1.389982e+01 2.269892e+01 1996
1.733116e+01 1.330909e+01 7.481117e+00 1997
-2.531261e+01 -5.455612e+00 2.297047e+01 2002
1.217628e+01 2.230526e+00 2.729849e+01 2009
3.533287e+01 -3.070611e+00 2.711780e+01 2042
1.821512e+01 1.284304e+01 1.353688e+01 2044
-8.395168e+00 -1.681418e+01 2.662086e+01 2054
7.609821e+00 8.362432e+00 8.677474e+00 2057
1.727733e+01 2.299149e+01 2.010051e+01 2062
-1.547900e+01 9.217208e+00 1.928699e+01 2063
3.830158e-02 1.015957e+01 8.605858e+00 2091
-4.838694e+01 5.319147e+00 8.551954e+00 2092
-2.674889e+01 -1.351862e+01 1.734874e+01 2093
2.925923e+01 7.632888e+00 2.527635e+00 2094
-3.608176e+01 1.953936e+01 2.810500e+01 2109
-1.109840e+01 -6.483188e+00 6.216048e+00 2118
-2.998891e+01 2.461277e+01 5.366602e+00 2126
4.474150e+01 9.768353e+00 4.205730e+00 2128
1.326724e+01 -1.521856e+01 1.817280e+01 2129
-2.510561e+00 2.041579e+01 2.438650e+01 2137
1.073445e+01 3.260304e+00 5.674888e+00 2142
4.295885e+01 1.006504e+01 1.456967e+01 2145
2.131585e+01 2.413827e+01 2.531054e+01 2148
-1.054395e+01 -1.559407e+01 1.247132e+01 2153
3.413973e+01 1.499060e+01 1.405996e+01 2154
-1.666683e+01 1.898050e+01 1.867021e+01 2159
1.033803e+01 -9.136347e-01 1.294086e+01 2166
-4.330443e+01 7.469098e+00 8.433753e+00 2191
9.303954e+00 2.350884e+01 1.937011e+00 2200
-8.534226e+00 -8.901314e+00 1.124758e+01 2210
-3.892827e+01 7.698751e+00 2.385848e+01 2217
1.386658e+01 -5.137737e+00 2.454874e+01 2227
6.790485e+00 -1.287098e+01 2.717733e+01 2233
3.325711e+01 2.588294e+00 4.186625e+00 2234
3.806732e+01 -1.909282e+01 2.465283e+01 2238
-3.180449e+01 9.864736e+00 2.364753e+01 2240
-3.770456e+01 -1.153056e+01 2.206362e+01 2244
-9.009896e+00 1.803160e+01 1.024731e+01 2252
-4.311426e+01 -1.224830e+01 3.631163e+00 2253
-4.444361e+01 8.918339e+00 9.460577e+00 2269
3.500507e+01 -4.760158e-01 6.182431e+00 2270
2.030072e+01 1.963435e+01 2.611194e+01 2287
9.217200e+00 8.417128e+00 1.525512e+01 2292
-3.386567e+01 1.365185e+01 2.221828e+00 2297
-1.941314e+01 -7.156841e+00 2.888511e+01 2307
2.678961e+01 1.055636e+01 8.731399e+00 2314
3.485708e+01 9.359866e+00 1.789765e+01 2334
4.983798e+01 -1.006755e+01 1.823844e+01 2347
1.212097e+01 7.504805e+00 2.862050e+01 2357
-1.155456e+01 2.370554e+01 2.672419e+01 2361
-2.017257e+01 9.776125e+00 2.526750e+01 2372
-2.224783e+01 -1.480384e+01 9.941068e-01 2386
-4.868480e+01 2.014935e+01 1.513127e+01 2391
4.481849e+00 2.266270e+01 2.412665e+01 2399
3.678565e+01 -9.272167e+00 2.883806e+00 2408
7.570384e+00 2.303700e+01 1.253884e+00 2425
4.843209e+01 -1.990843e+01 1.874711e+01 2426
2.780890e+01 -3.499371e+00 2.989850e+01 2428
-3.221128e+01 -8.716161e+00 2.246034e+01 2442
2.355337e+01 1.881593e+01 2.387710e+01 2451
-1.153763e+01 -1.638855e+01 2.259134e+01 2452
-1.609331e+01 -1.733882e+01 1.989256e+01 2454
4.442504e+01 -1.654136e+01 2.772479e+01 2494
-2.566947e+01 -6.217178e+00 1.811149e+01 2520
4.194931e+01 -2.350082e+01 1.569216e+01 2526
-2.828235e+01 1.360939e+00 1.509608e+00 2528
2.359288e+01 -1.863231e+01 2.541943e+01 2542
-2.968340e+01 9.422818e+00 2.161018e+01 2544
-1.563219e+01 1.189078e+01 1.762271e+01 2556
-1.331234e+01 -1.800193e+00 2.686692e+01 2566
-3.114767e+00 -1.209508e+01 4.969600e+00 2571
-8.390743e+00 9.885997e+00 1.487431e+01 2586
2.353234e+01 -8.392338e+00 2.297259e+01 2587
-3.595434e+01 2.232132e+01 2.951763e+01 2594
4.308243e+01 -3.148338e+00 1.462592e+01 2595
-1.984673e+00 1.507683e+01 7.634320e+00 2597
9.180916e+00 1.800994e+01 1.190974e+01 2598
-1.018740e+01 -2.258706e+01 2.162818e+00 2607
-1.703256e+01 -2.216262e+01 2.581456e+01 2633
2.798643e+01 2.220016e+01 2.685584e+01 2637
2.245080e+01 2.261920e+01 1.204401e+01 2640
1.795933e+01 -1.294849e+01 1.078771e+01 2644
-1.291226e+01 -9.371280e+00 4.569956e+00 2646
-4.641475e+01 -1.949157e+01 9.463179e+00 2649
-8.090061e+00 -1.701016e+01 2.704566e+01 2651
-4.401510e+01 -1.395759e+01 1.441438e+01 2653
-4.061828e+01 5.062318e+00 2.099844e+01 2670
-2.572638e+00 1.130903e+01 3.476188e+00 2704
-1.755296e+01 -1.981047e+01 1.618593e+01 2710
4.380457e+01 -4.660640e+00 2.698319e+01 2713
2.390862e+01 -5.034034e-01 9.071966e-01 2717
3.425219e+01 1.655387e+01 2.170666e+01 2731
4.375032e+01 -1.355847e+01 2.741441e+01 2734
2.840824e+01 -1.649385e+01 2.189524e-02 2739
-2.523883e+01 7.932811e+00 1.468183e+01 2752
-4.138675e+01 5.879836e+00 1.610950e+01 2760
-1.696829e+01 -2.274976e+01 2.888455e+01 2765
4.386838e+01 1.126709e+01 1.686906e+00 2769
4.182231e+01 8.311988e+00 2.464564e+01 2771
-2.274582e+01 -2.128368e+01 2.774338e+01 2772
2.403406e+01 -1.896166e+01 3.577141e+00 2782
4.672749e+00 -1.034973e+01 2.911722e+01 2787
-2.300662e+01 4.809633e+00 1.552376e+00 2795
1.880638e+01 -9.564260e+00 2.456766e+01 2800
-3.102398e-01 -2.272162e+01 8.256536e+00 2814
1.298672e+01 1.676381e+01 2.789931e+01 2816
-3.715910e+01 2.239905e+01 4.196669e+00 2836
-3.369577e+01 -1.476342e+00 9.471222e+00 2848
-4.938075e+01 4.434907e+00 2.671367e+01 2860
-4.032917e+01 1.856864e+00 2.292858e+01 2866
-1.061981e+01 9.981438e+00 5.330184e+00 2868
-4.534372e+01 -4.986523e+00 1.345920e+01 2874
-1.814101e+01 -2.338258e+01 2.639426e+00 2877
1.810600e+01 1.068198e+00 4.454018e+00 2879
4.516839e+01 2.153053e+01 2.279756e+01 2883
3.070813e+00 1.577636e+01 6.728946e+00 2906
-1.224835e+01 1.051962e+01 2.486359e+01 2907
3.448700e+01 1.832263e+01 1.972935e+00 2923
-2.820818e+01 -2.021146e+01 2.329454e+01 2926
-2.669468e+01 -7.818545e-01 1.400825e+01 2940
-2.903976e+01 1.893868e+01 1.872432e+01 2943
4.051210e+01 -1.380012e+01 1.941600e+01 2952
2.543007e+01 -5.207100e+00 2.015978e+00 2956
4.594631e+00 -2.127521e+01 1.099161e+01 2970
-4.930274e+01 -1.944281e+00 3.747323e+00 2971
2.556797e+01 -1.169201e+01 2.831073e+01 2982
1.358930e+01 1.119129e+01 1.613341e+01 2990
-3.294091e+01 1.599644e+01 1.664030e+01 2995
-2.136069e+01 5.397848e+00 1.064197e+01 2998
-1.606482e+01 1.744205e+00 1.004268e+00 3008
5.721762e+00 5.573538e+00 2.907476e+01 3025
-3.987529e+01 6.007291e+00 2.543414e+01 3028
3.195677e+01 -2.470892e+01 6.684211e-01 3044
1.632513e+01 1.844836e+01 2.291602e+01 3059
-4.617947e+01 -1.898326e+01 2.156323e+01 3067
2.648915e+00 -9.696952e+00 2.152463e+01 3081
1.952414e+01 6.095608e-01 1.936107e+01 3083
-2.426093e+01 -1.074160e+01 1.145359e+01 3089
4.959778e+01 -1.433194e+01 1.972708e+01 3094
-3.687824e+01 -1.827907e+01 1.579641e+01 3103
7.540854e+00 1.084946e+01 9.868899e+00 3104
-3.041699e+01 1.621993e+01 2.973514e+01 3120
1.654196e+01 1.700866e+01 7.646155e+00 3123
-1.709062e+01 -1.149242e+01 2.945525e+01 3134
-4.970953e+01 -1.018675e+01 2.086204e+01 3140
2.657394e+01 -2.659727e+00 6.486025e-01 3156
4.492283e+01 -8.492570e+00 3.165373e+00 3157
-4.301001e+01 -1.627422e+01 2.428134e+00 3198
1.029053e+01 -6.893146e+00 2.601950e+01 3200
4.645090e+01 2.427478e+01 2.801833e+01 3209
4.085661e+01 2.260059e+01 2.717298e+01 3218
-2.435618e+01 1.610635e+01 1.718794e+00 3223
-1.383998e+01 1.462097e+00 1.324557e+01 3244
2.957564e+01 5.371391e+00 1.982603e+01 3248
2.435742e+01 -1.373664e+01 2.438955e+01 3254
4.918535e+01 4.282615e+00 1.205435e+01 3257
-4.770669e+01 -1.932979e+01 2.797265e+00 3258
4.475735e+01 -3.732528e+00 1.088754e+01 3259
3.115214e+00 2.026872e+01 2.656842e+01 3262
4.731079e+01 -4.534194e+00 1.887725e+01 3263
3.052066e+01 -1.688104e+01 3.827212e+00 3273
-5.326490e+00 -2.061768e+01 2.302989e+01 3285
4.080264e+01 -1.624000e+01 3.425795e+00 3308
2.565377e+01 1.566838e+01 5.541702e+00 3317
-4.042192e+01 -7.344307e+00 6.329927e-01 3321
-3.007415e+01 2.469486e+01 2.158858e+01 3322
-3.972473e+01 -2.141679e+01 2.982897e+01 3323
2.268975e+01 9.548417e+00 3.182106e+00 3333
3.344498e+01 1.338408e+01 1.430304e+01 3347
2.024903e+01 -1.001392e+01 3.477298e+00 3348
-2.129174e+01 -2.064482e+01 3.599064e+00 3353
-1.820052e+01 -2.026733e+01 2.806525e+01 3357
3.631278e+01 -7.081677e+00 1.010293e+01 3366
-2.332682e+01 1.194642e+01 1.020197e+01 3375
4.110791e+01 -6.218992e+00 1.542120e+00 3398
-3.923105e+01 1.684759e+01 5.821320e+00 3402
-4.357101e+01 1.123216e+01 2.754044e+01 3415
-2.340105e+01 1.687894e+01 2.208629e+00 3431
-1.551004e+00 -8.082030e+00 2.091354e+01 3433
2.789168e+01 -1.516721e+01 2.944973e+01 3445
-3.775426e+01 -2.322232e+01 2.033697e+01 3447
4.880254e+01 -2.455428e+01 2.757207e+01 3450
3.170741e+01 1.758483e+01 2.247158e+01 3456
-2.638101e+01 -9.049908e+00 2.204183e+01 3460
-4.458109e+01 2.035876e+01 2.343294e+01 3461
4.502571e+01 -2.360478e+01 1.922518e+01 3463
-3.217143e-02 8.165242e+00 2.966109e+01 3464
-3.654975e+01 -1.468853e+00 1.456227e+01 3484
1.864459e+01 -2.394524e+01 3.706317e+00 3487
2.396571e+01 -6.888749e+00 2.262089e+01 3488
2.324986e+01 1.845743e+00 7.826794e+00 3491
3.402402e+01 -3.588895e+00 1.771549e+01 3492
-1.162342e+01 2.733002e+00 2.708157e+01 3498
6.223720e+00 -1.218563e+01 1.243340e+01 3503
-3.751473e+01 -2.471634e+01 2.107188e+01 3526
1.366580e+00 1.457305e+01 2.069549e+01 3527
-4.224858e+01 -4.476601e+00 8.783184e+00 3532
3.139150e+01 -1.508475e-01 7.197141e+00 3535
-3.281347e+01 -1.727636e+01 1.941879e+01 3538
-2.509397e+01 -6.784165e+00 1.673237e+01 3562
4.813334e+01 -1.764629e+01 1.496628e+01 3578
2.369253e+01 8.696745e+00 1.002205e+01 3593
-3.048293e+01 -2.300257e+01 5.342930e+00 3604
-2.191932e+01 -1.633718e+01 1.482208e+01 3612
1.470691e+01 -1.144157e+01 2.423494e+01 3614
4.195619e+01 -6.253241e+00 1.417197e+01 3621
-4.760549e+01 -1.564204e+01 2.208348e+01 3626
-3.702083e+01 -1.706987e+00 9.985583e+00 3639
-3.125677e+01 1.070237e+01 2.242019e+00 3652
-8.047797e+00 3.097106e-01 1.113836e+01 3659
-2.167429e+01 -1.667731e+01 1.533556e+01 3663
1.816394e+01 2.136047e+01 1.951655e+01 3669
4.522070e+01 -1.916098e+00 1.777378e+00 3675
4.224713e+01 -5.264440e+00 1.744440e+00 3677
-2.533023e+00 -1.712488e+01 4.406245e+00 3679
-3.301477e+01 6.148026e+00 1.598563e+01 3682
-3.856121e+01 -1.289120e+01 1.948777e+01 3685
-3.273981e+01 7.793202e-01 2.163849e+00 3686
4.201769e+01 -1.258917e+01 8.152620e+00 3713
4.535177e+01 -2.887483e+00 2.587444e+01 3717
-2.036531e+01 1.124786e+01 2.170200e+01 3727
-2.330625e+01 -1.175274e+01 2.840807e+01 3729
-2.771512e+01 -2.419806e+01 9.608978e+00 3730
2.223168e+01 -5.291769e-01 2.050472e+01 3733
-7.497361e+00 9.410669e-01 7.452099e+00 3734
2.453637e+01 1.692074e+01 2.910672e+01 3736
2.819337e+01 5.992247e-01 7.737189e+00 3741
1.179406e+01 1.191083e+01 2.784035e+01 3747
-4.881752e+01 -1.456631e+01 2.898967e+01 3755
-7.436017e+00 -1.626362e+01 1.447177e+01 3758
-2.141019e+01 -9.119545e+00 2.693993e+01 3760
-4.699888e+01 2.880125e+00 2.924057e+01 3761
-4.807526e+00 -1.804462e+01 1.471640e+01 3762
-4.729602e+01 -5.767431e+00 2.499167e+01 3766
3.729067e+01 1.799197e+01 2.592367e+01 3771
-3.339524e+01 -4.518991e+00 2.286060e+01 3780
4.406580e+01 2.883679e+00 8.238847e+00 3788
-1.021823e+01 -1.333126e+01 1.953905e+00 3798
2.310013e+01 -1.750250e+01 2.750985e+01 3800
8.187834e+00 -1.518242e+01 1.455882e+01 3801
2.848491e+01 1.992761e+01 1.807260e+01 3804
-2.269628e+01 8.817106e+00 1.148670e+01 3820
3.790659e+01 -6.590039e+00 3.224812e+00 3836
8.547211e+00 -1.273503e+01 3.917863e+00 3844
-4.169008e+01 1.379339e+01 2.541979e+01 3849
-2.086254e+01 -4.621304e+00 1.825225e+01 3854
3.209663e+01 1.454703e+01 1.957420e+01 3856
3.801922e+01 1.952157e+01 1.797482e+00 3857
5.412278e+00 2.100943e+01 1.698032e+01 3858
3.316892e+01 1.458130e+01 1.498249e+01 3859
-1.685719e+01 -2.414829e+01 1.614428e+01 3865
4.657446e+01 1.872629e+01 1.793656e+01 3880
3.136625e+01 -6.318900e+00 8.644287e+00 3889
1.434068e+01 -2.011109e+01 1.649749e+00 3910
3.685171e+00 -2.157026e+01 2.194602e+01 3911
4.995148e+01 1.273111e+01 2.257337e+01 3919
4.309368e+01 -2.201996e+01 1.898666e+01 3929
4.545366e+01 -5.183680e+00 2.768045e+01 3930
-3.142371e+01 2.166319e+01 2.214819e+01 3935
3.439753e+01 -2.552858e+00 5.082592e+00 3953
1.513463e+01 5.986494e+00 2.451167e+01 3957
2.929247e+01 1.950823e+01 2.591098e+01 3963
3.578240e+00 7.912433e+00 1.417821e+01 3969
2.573930e+01 1.960272e+01 9.554795e-01 3973
-3.579805e+01 -1.239711e+01 2.162692e+01 3984
-1.624937e+01 -9.179533e+00 2.049541e+01 3989
-3.279449e+01 6.319038e-02 6.097852e+00 4011
3.684805e+01 1.840149e+01 1.183337e+01 4016
6.996070e+00 -1.166844e+00 1.931100e+01 4017
-1.631243e+01 -6.991068e+00 1.264812e+01 4020
-4.620568e+01 9.637448e+00 2.130697e+01 4029
3.627849e+01 -9.214739e+00 2.901508e+01 4034
-6.687701e+00 8.193326e+00 1.558794e+01 4036
-1.823233e+00 -8.700130e-01 4.837034e+00 4037
-1.442049e+01 -6.755065e+00 8.604569e+00 4039
-5.043414e+00 3.696397e+00 2.684587e+01 4046
-4.821543e+01 -9.032439e+00 1.308940e+01 4057
4.605442e+01 -1.782033e+01 2.939449e+01 4061
1.840499e+01 8.670754e+00 2.559525e+01 4066
-3.910729e+01 -8.259341e+00 8.426426e+00 4079
2.575564e+01 1.394374e+01 7.462310e+00 4080
-3.405676e+01 6.514163e+00 1.453172e+01 4088
-2.651148e+01 -2.205632e+01 1.017882e+01 4104
4.154465e+01 -1.597905e+01 2.240888e+01 4106
3.485847e+01 -2.476019e+01 6.922641e+00 4120
2.332367e+01 1.860602e+01 1.262082e+01 4144
-4.873496e+01 1.512435e+01 2.486060e+01 4150
-2.543719e+01 -3.681117e+00 1.572501e+01 4152
4.428039e+01 1.456623e+01 2.402105e+01 4161
-1.236840e+01 -2.479443e+01 1.485724e+01 4165
3.917065e+01 -5.042227e+00 5.573184e+00 4170
6.828519e+00 4.221669e+00 2.015216e+01 4172
-7.232156e+00 -3.098407e+00 1.568527e+01 4178
1.682543e+01 1.602953e+01 1.233468e+01 4183
-2.362596e+00 1.114291e+01 2.887958e+01 4184
2.321953e+01 -1.541671e+01 3.326537e+00 4194
-1.671975e+01 7.297928e+00 2.714273e+01 4201
1.747356e+01 -2.390562e+01 1.458579e+01 4209
-5.429834e+00 -2.348999e+01 4.058537e+00 4211
1.206968e+01 2.140744e+01 2.392840e+01 4239
1.818184e+01 1.664045e+01 3.938303e+00 4245
3.510039e+01 6.710448e+00 2.013396e+00 4248
2.165358e+01 -1.942977e+01 1.512452e+01 4252
-1.476621e+01 -2.842552e+00 2.526051e+01 4256
-1.114542e+01 1.481382e+01 6.735770e+00 4265
-1.078174e+00 2.139550e+01 2.211803e+01 4266
2.102263e+01 8.605180e+00 2.548218e+01 4268
4.026675e+01 -1.737378e+01 2.358796e+01 4302
4.819191e+01 1.539493e+01 1.733889e+01 4304
-3.966047e+01 5.023441e-01 2.198626e+01 4308
-3.021536e+01 2.459635e+00 3.161500e+00 4314
3.509282e+01 -7.941749e+00 2.468372e+01 4318
3.361876e+01 8.686304e+00 1.689435e+01 4325
-1.667506e+01 -1.511940e+01 2.574599e+01 4332
1.494557e+01 -1.219879e+01 8.683743e+00 4340
-1.144978e+01 4.077777e+00 2.235319e+01 4347
-2.944737e+01 -3.612343e-01 4.653480e-01 4351
8.043252e+00 -5.956302e+00 1.286288e+01 4352
-2.261136e+01 1.020740e+01 2.835617e+01 4353
1.542400e+01 1.681365e+01 2.938934e+00 4359
-4.367572e+01 1.469998e+01 1.161860e+01 4360
-2.321991e+01 9.179178e+00 3.728701e+00 4370
4.238513e+01 -8.890202e+00 4.583580e+00 4378
-2.737830e+01 1.977832e+01 1.066973e+01 4389
1.495354e+01 -2.122629e+01 6.622743e+00 4395
6.771846e+00 1.512912e+01 2.399745e+01 4396
-1.506201e+01 2.140364e+01 2.049168e+01 4402
1.987713e+00 -1.821463e+00 1.778730e+01 4404
4.065307e+01 -9.434384e+00 2.901877e+00 4408
4.620755e+01 -2.039436e+01 2.199463e+01 4409
1.188175e+01 9.973492e+00 6.930638e-01 4423
-4.231178e+00 -3.888261e+00 2.698349e+01 4432
-2.746840e+01 1.501611e+01 1.724630e+01 4434
-3.722183e+01 2.026918e+00 1.343300e+01 4435
1.761537e+01 1.132409e+01 1.430269e+01 4448
-2.736188e+01 1.230564e+01 2.878934e+01 4453
-4.425004e+01 9.088907e+00 2.417839e+01 4462
-1.621571e+01 1.956734e+01 2.664119e+01 4470
-1.730711e+01 2.353075e+01 4.243351e+00 4480
2.323707e+01 2.044771e+01 1.468793e+01 4481
3.133652e+01 2.549707e+00 2.364904e+01 4485
-1.243110e+01 1.266096e+01 1.467641e+01 4488
1.361367e+01 -8.600428e+00 8.855620e+00 4511
1.995063e+01 -3.146350e-01 2.001959e+01 4515
2.937197e+01 2.632798e+00 1.079166e+01 4524
-8.027087e+00 -2.121305e+01 1.070510e+01 4534
-3.317243e-01 1.005638e+01 2.405699e+01 4537
-1.739222e+01 1.298458e+01 4.939388e+00 4538
5.575296e+00 1.478520e+00 2.042824e+01 4541
-3.004681e+01 1.309774e+01 9.987967e+00 4544
-5.882219e+00 2.002910e+01 1.685065e+01 4578
1.538050e+01 1.186972e+01 1.952929e+01 4584
-4.082588e+01 6.036452e+00 1.593011e+01 4602
2.839956e+01 -1.129154e+01 8.882822e+00 4606
4.717984e+01 1.969411e+01 3.102418e+00 4614
4.371885e+01 -6.741735e-01 4.582742e+00 4618
6.341829e+00 -2.409179e+00 7.725177e+00 4620
-3.216329e+01 -5.214829e+00 8.052684e-02 4621
3.762614e+01 -1.283916e+01 7.692785e+00 4623
-7.312366e+00 -2.305643e+01 6.691999e+00 4624
3.639841e+01 3.114710e+00 1.497813e+01 4626
9.519521e+00 -3.205661e+00 1.861120e+01 4635
-3.682319e+01 1.702931e+01 2.732575e+01 4636
-4.254695e+01 1.080192e+00 2.272585e+01 4638
-4.446835e+01 -1.206135e+01 1.925146e+01 4640
4.685463e+01 1.392607e+01 2.785616e+00 4645
-4.563883e+01 -1.488330e+01 2.974461e+01 4646
9.680427e+00 -2.209897e+01 1.599877e+01 4654
1.821047e+01 -5.784397e+00 1.581073e+01 4659
-2.229079e+01 1.753839e+01 2.382190e+01 4660
6.392940e-01 -2.328417e+01 1.184932e+01 4663
-6.433267e+00 3.002466e+00 2.366885e+01 4665
-1.851514e+01 -1.872240e+01 1.728869e+01 4667
1.183604e+01 -2.267837e+00 2.216263e+01 4668