Title = Snapshot #33
Variables=X Y Z PartID
Zone I= 6361, F=POINT
9.816754e+00 -1.128112e+01 2.069312e+01 2
1.139644e+01 1.098064e+01 2.773536e+01 8
9.304399e+00 2.135812e+01 2.189028e+01 12
-5.599691e+00 6.118617e+00 9.889564e+00 14
-3.279037e+01 1.915765e+01 9.131088e-01 17
-2.271465e+01 1.241894e+01 8.456620e+00 18
-3.449539e+01 -2.275841e+01 2.078580e+01 21
-1.774153e+01 -1.467211e+01 2.516250e+01 23
1.923328e+01 -1.166933e+01 1.511968e+01 31
-1.573704e+01 -4.717957e-01 5.084318e+00 41
7.093516e+00 7.278919e+00 1.372390e+01 42
-2.104416e+01 5.182968e+00 2.108733e+01 45
-4.313492e+01 -2.148359e+01 2.656523e+01 74
-2.866337e+01 -1.229887e+01 8.232060e+00 80
3.608182e+00 2.336028e+01 1.324949e+01 82
-4.734475e+01 -1.499879e+01 2.461680e+01 83
-4.947288e+01 1.066001e+01 2.597869e+01 90
2.573283e+01 1.342309e+01 7.404196e+00 91
3.035214e+01 -1.155221e+01 2.221908e+01 95
3.381800e+01 1.287867e+01 2.472471e+01 98
4.553399e+01 1.188513e+01 1.693198e+01 135
7.395061e+00 -8.075544e+00 1.662904e+01 137
3.411871e+01 8.746815e+00 1.307595e+01 150
-1.784063e+01 -5.722049e+00 8.371419e+00 158
-2.287260e+01 -2.472557e+01 1.600370e+01 166
2.990282e+01 1.169726e+00 1.514030e+01 171
2.412796e+01 1.334047e+01 5.526153e+00 181
-8.828347e+00 5.800153e+00 1.086642e+01 214
-1.864336e+01 2.054210e+01 5.872034e+00 217
-3.938118e+01 -1.484933e+01 2.564420e+01 219
2.037336e+00 2.730414e+00 1.080444e+01 233
-4.451485e+01 1.491318e+01 8.376703e+00 234
2.326900e+01 -1.475436e+01 5.133764e+00 257
-4.232376e+01 -1.833393e+01 2.008054e+01 279
9.718318e+00 2.448082e+00 2.029830e+01 295
-4.299157e+01 -1.810829e+01 4.074324e+00 309
3.797243e+01 -1.921607e+01 6.474700e+00 317
9.637799e+00 9.049558e-01 2.628219e+01 319
1.030271e+01 -1.815368e+01 2.513299e+01 321
-4.101583e+01 1.522648e+01 1.912154e+01 325
-4.792867e+01 -1.244210e+01 1.739420e+00 329
3.655520e+01 2.030748e+01 2.975212e+01 337
-3.110261e+01 -1.115047e+01 8.107440e+00 340
4.342941e+01 2.370215e+01 2.875347e+01 352
4.655697e+01 1.412229e+01 1.772217e+01 363
-1.155584e+01 2.337908e+01 3.185177e+00 373
4.468552e+01 6.784109e-01 2.916851e+01 375
-2.558481e+01 1.199953e+01 4.490970e+00 396
1.693502e+01 1.042703e+01 1.139383e+01 412
2.216645e+01 -1.763884e+01 2.999329e+01 418
-1.190753e+01 -1.923259e+01 2.362915e+01 425
5.237110e+00 1.432889e+01 5.403655e-01 426
-2.897913e+00 1.500284e-01 9.028868e+00 427
2.111349e+01 1.041501e+01 2.357780e+01 441
2.018961e+01 1.528487e+01 2.723679e+01 443
1.146824e+01 2.051454e+01 2.625681e+01 454
2.565872e+01 1.001988e+01 2.537960e+01 457
-1.239270e+00 2.302495e+01 1.915981e+01 467
3.552320e+01 -1.490133e+01 7.980286e+00 477
-4.870686e+01 8.513656e+00 6.877907e+00 483
3.824321e+01 3.876023e+00 4.703428e+00 504
-8.038237e+00 5.664377e+00 1.519297e+01 505
1.481344e+01 1.393324e+01 2.949304e+01 506
4.490608e+00 -1.342375e+01 1.091839e+01 510
-6.030042e+00 1.072034e+01 8.639141e+00 521
-1.617599e+01 -2.123652e+01 9.126631e+00 524
-4.948322e+01 -1.834619e+01 2.674161e+01 525
-3.453859e+01 6.012621e+00 2.612489e+01 536
1.683392e+01 1.876059e+01 2.335644e+00 537
-9.278513e+00 -1.069324e+01 2.776859e+01 555
4.924149e+01 1.442535e+01 2.769527e+01 558
-1.047420e+01 5.395601e+00 2.906294e+01 559
2.933768e+01 1.253271e+01 2.901449e+01 564
4.000958e+01 1.857954e+01 1.658720e+01 578
-5.782708e+00 2.046120e+01 4.348901e-01 581
-4.606696e+01 1.211091e+00 1.640999e+01 582
-2.747179e+01 1.395695e+01 1.381478e+01 588
4.560515e+01 2.140866e+01 1.569873e+01 591
-8.732339e-01 1.556566e+01 2.758888e+01 594
-4.816046e+01 6.856807e+00 3.738297e+00 599
-7.445646e+00 -2.345646e+01 8.509853e-01 611
-4.888808e+01 2.085562e+01 1.276354e+01 618
-4.064899e+01 -7.757826e+00 1.438533e+01 626
4.076625e+01 1.771522e+01 2.746959e+00 629
-6.986345e+00 2.336447e+01 2.672076e+01 634
1.744039e+00 -1.383759e+01 6.499164e+00 636
-1.765877e+01 -7.939228e+00 2.167719e+01 640
2.632408e+01 1.579187e+01 1.915075e+00 650
4.903828e+01 -2.398002e+01 1.001619e+01 657
-1.147772e+01 -2.519644e+00 2.079673e+01 661
-4.127047e+01 -7.668844e+00 9.258551e+00 667
1.271952e+01 -1.197788e+01 2.294739e+01 674
2.959864e+01 -1.233343e+01 2.859598e+00 675
6.468342e+00 -1.517537e+01 1.445675e+01 686
4.173718e+01 6.836613e-01 1.987737e+01 687
1.966400e+01 -5.425646e+00 2.681326e+01 688
-2.261951e+01 -1.268626e+01 2.103097e+01 691
-2.677695e+01 -6.376331e+00 8.649620e+00 697
-2.741624e+01 1.617795e+01 1.323924e+01 701
-2.085798e+01 -9.623220e+00 2.674655e+01 702
-1.331369e+01 1.689376e+01 2.485235e+01 704
4.589439e+01 2.168349e+01 1.082828e+01 723
3.310305e+01 1.566196e+01 1.946541e+01 724
1.675198e+01 1.265228e+01 1.120053e+01 729
-4.713951e+00 -8.287003e+00 2.486656e+01 731
-4.664256e+01 -2.080832e+01 6.926167e+00 739
-2.359944e+01 1.495657e+01 1.607525e+01 743
3.558707e+01 1.083238e+01 2.674411e+01 747
-4.148975e+00 -7.620897e+00 4.166023e+00 749
3.217198e+01 -1.213560e+01 1.069084e+01 752
2.175055e+01 1.072395e+01 2.819559e+01 754
-2.161777e+01 9.972214e-01 1.903965e+01 763
3.216798e+00 -1.165711e+01 3.539485e+00 776
-3.656202e+01 -2.498164e+01 5.793746e+00 782
3.630750e+01 -7.720464e+00 1.251261e+01 783
-1.681099e+01 6.621161e+00 7.622945e+00 791
-2.329290e+01 1.822059e+01 2.347984e+01 793
3.177649e+00 1.630415e+01 2.636080e+01 797
1.008029e+01 -4.048336e+00 2.716946e+01 814
1.621043e+01 -1.027537e+01 2.695188e+01 823
3.348544e+01 1.223867e+00 1.734604e+01 841
-4.312115e+01 -1.829535e+01 4.632698e+00 848
2.748608e+01 4.509181e+00 2.612013e+01 852
4.381849e+00 -6.320624e+00 4.921545e+00 853
1.382220e+01 7.049636e+00 1.129804e+01 860
1.791307e+01 -5.571133e+00 3.419510e+00 862
1.689012e+01 1.337295e+01 1.078093e-01 865
8.225112e-01 1.254628e+01 1.569417e+01 871
-9.962883e+00 -2.006070e+01 1.854973e+01 879
8.852448e+00 -1.670068e+01 2.266692e+01 890
-3.444152e+01 2.142637e+01 4.313757e+00 891
-3.016465e+01 1.942227e+01 2.907554e+01 892
-2.869201e+01 1.121697e+01 1.969048e+01 893
1.871521e-01 1.209689e+00 1.817580e+01 899
1.946274e+01 -2.360310e+01 1.550150e+01 901
4.092115e+01 5.581350e+00 1.245339e+00 903
-2.376360e+01 1.550060e+01 2.998170e+01 904
-2.591657e+01 9.054589e+00 1.677475e+01 918
-3.554851e+01 -5.922537e+00 2.372036e+01 928
-8.551383e+00 2.470664e+01 2.553543e+01 939
-3.053040e+01 -1.110088e+01 1.289171e+01 961
-5.438530e+00 -7.101040e+00 2.989678e+01 971
-1.629009e+01 -5.861032e+00 2.889766e+01 973
1.827501e+01 -2.496820e+01 1.438812e+01 974
1.671337e+01 5.953333e-01 2.227496e+01 980
-3.695608e+00 -1.387832e+01 2.066554e+00 984
2.720653e+01 1.740039e+01 2.724925e+01 994
-3.227150e+01 -9.091377e+00 6.565951e+00 1000
-2.967362e+01 9.155311e+00 2.312702e+01 1010
-1.211818e+01 1.303871e+01 2.778726e+01 1013
-4.915569e+01 1.426045e+01 2.112585e+01 1018
-3.656282e+01 6.298553e+00 2.696294e+01 1019
-6.532349e-01 -1.488839e+01 1.668919e+00 1024
-2.091282e+01 -9.569939e+00 2.409923e+01 1033
4.977351e+01 6.773973e+00 2.327147e+01 1046
1.184460e+01 2.201283e+01 9.253572e+00 1054
2.727841e+00 -7.772303e+00 2.769891e+01 1056
-3.477575e+01 2.362780e+01 4.113423e+00 1058
-4.639875e+01 3.304995e+00 4.827884e+00 1073
2.342328e+01 2.231165e+01 5.109542e+00 1091
2.572380e+01 1.941810e+01 5.655492e+00 1096
-7.785020e+00 -1.191731e+01 2.507526e+01 1100
4.163597e+00 1.058625e+01 9.754627e+00 1119
2.191965e+01 1.737627e+01 7.211189e+00 1133
-2.620625e+01 1.982601e+01 1.517529e+01 1137
1.890429e+01 1.202188e+01 3.507024e+00 1140
-3.068508e+01 -1.535467e+01 1.537580e+01 1147
1.819438e+01 1.593972e+01 1.412522e+01 1168
-4.531197e+01 -2.066102e+00 1.023448e+01 1174
-1.240186e+01 -2.371099e+01 6.025243e+00 1176
2.737981e+01 1.026918e+01 7.026227e+00 1183
-3.947259e+01 -2.148748e+01 9.786737e+00 1193
-2.536918e+01 -2.138424e+01 1.203989e+01 1196
-4.759948e+01 8.350787e-01 1.907984e+01 1198
4.728632e+01 4.750772e+00 2.274523e+01 1210
-4.545513e+01 1.524564e+01 2.256152e+01 1222
5.201251e+00 1.789485e+01 3.938837e+00 1226
-1.315602e+01 1.407419e+01 1.961713e+01 1230
-4.317636e+01 -1.667705e+01 1.449770e+00 1232
2.762864e+01 1.381776e+00 6.198370e+00 1238
4.682727e+01 -3.030678e+00 1.182987e+01 1242
-3.153419e+00 -1.093395e+01 2.415418e+00 1250
4.968612e+01 -1.405036e+01 1.305386e+01 1252
-4.912030e+01 -1.829377e+01 4.356591e+00 1257
-6.244220e-01 1.593532e+01 8.549557e-01 1260
3.710170e+01 5.360270e+00 2.450873e+01 1273
-2.699325e+01 -5.743478e+00 1.193368e+00 1278
2.687686e+01 -9.459821e+00 1.820087e+00 1284
-1.395772e+01 4.896160e+00 2.462914e+01 1286
3.217638e+01 9.666072e+00 1.497918e+00 1292
-1.066349e+01 7.656549e+00 2.999900e+01 1296
-9.514951e-01 -2.952935e-01 2.855185e+01 1312
-1.145907e+00 -5.327497e+00 2.095027e+01 1323
-1.713152e+01 -2.282250e+01 2.398515e+01 1326
-1.998445e+01 -2.145466e+01 2.350668e+01 1332
3.123975e+01 -2.096818e+01 2.441427e+01 1333
-4.473424e+01 5.124817e-01 1.816236e+01 1334
2.158225e+01 -1.854733e+01 1.530620e+01 1337
-1.787807e+01 3.669062e+00 3.641608e+00 1340
-5.003762e+00 -1.512669e+01 2.834302e+01 1342
1.928926e+00 4.893977e+00 2.051426e+01 1346
2.607071e+01 1.722191e+01 1.603427e+01 1350
1.191271e+01 -5.741836e+00 2.729685e+01 1351
3.780901e+01 8.630404e-01 1.845492e+01 1352
-3.911586e+00 -4.693185e+00 1.285654e+01 1356
9.439612e+00 -6.183984e+00 1.486133e+01 1362
-4.301398e+01 5.474232e+00 1.547841e+01 1374
3.467053e+01 7.909122e+00 1.238948e+01 1375
3.395643e+01 1.040530e+01 1.424325e+01 1382
1.899991e+01 -2.382026e+00 2.015924e+01 1385
5.402940e-01 -2.391422e+01 1.567281e+01 1395
1.625236e+01 1.237342e+01 1.362087e+01 1415
1.345930e+01 -1.846328e+01 1.930884e+01 1420
-6.260195e+00 1.978357e+01 6.450630e+00 1421
2.068127e+01 -1.798433e+01 1.973522e+01 1423
2.044117e+01 -1.180908e+01 8.776336e+00 1442
-4.854959e+01 2.317454e+01 1.724886e+01 1445
9.691839e+00 2.152574e-01 1.797627e+01 1451
1.044393e+01 8.188843e+00 1.371708e+01 1455
3.651055e+01 -9.143835e+00 1.559468e+00 1460
1.191540e+01 -1.648913e+01 1.872131e+01 1470
-1.958551e+01 -4.634755e+00 5.443879e+00 1471
-2.658885e+01 -9.123369e+00 2.263187e+01 1472
3.805492e+01 -8.946349e+00 1.413783e+01 1474
9.740404e-01 -1.415551e+01 1.493507e+01 1478
-4.156408e+01 1.753972e+01 2.262664e+01 1479
-1.590037e+01 -1.096065e+01 1.196091e+01 1493
2.846838e+01 -1.548033e+01 1.219661e+01 1496
-3.615310e+01 1.304464e+01 1.589979e+01 1502
1.931360e+01 1.816139e+01 1.699765e+01 1514
6.761778e-01 -1.202819e+01 2.825427e+01 1516
3.712775e+01 -2.962051e+00 8.710393e-02 1517
-1.902306e+00 2.135779e+01 2.081144e+01 1518
-1.161918e+01 -1.905233e+01 7.570518e+00 1523
4.753935e+01 -1.809566e+01 2.841985e+01 1531
-4.859104e+01 -9.714503e+00 1.411604e+01 1543
-3.764000e+00 1.771368e+01 3.031268e+00 1546
3.284118e+01 -3.358023e+00 8.034014e+00 1551
-4.578319e+01 1.119469e+01 2.483678e+01 1562
8.861711e+00 1.775426e+01 2.855031e+01 1576
-3.133078e+01 1.164525e+01 2.221048e+01 1580
-3.843655e+01 1.600911e+01 2.099977e+01 1582
-3.089464e+00 -1.234513e+01 2.014233e+01 1589
-2.641098e+01 2.164252e+01 2.960596e+01 1591
-1.653281e+01 2.374427e+01 2.779269e+01 1595
-1.676977e+00 1.012818e+01 2.511609e+01 1598
1.594529e+01 2.175247e+01 1.623646e+01 1606
5.329889e+00 -9.153808e+00 2.277366e+01 1615
2.146009e+01 -1.175308e+01 4.382634e+00 1617
3.331767e+01 -6.012713e+00 1.111545e+01 1620
-5.730679e+00 1.147103e+01 6.022487e+00 1623
-3.089660e+01 -2.446275e+01 1.273395e+01 1634
2.459266e+01 2.273949e+01 2.353702e+01 1642
-2.771844e+00 -3.670028e+00 1.590842e+01 1655
-3.903206e+01 1.626795e+01 3.825791e+00 1667
7.813271e+00 -2.151699e+01 2.003926e+01 1669
8.583783e+00 -7.450383e+00 1.632623e+01 1687
-3.907042e+01 -9.811189e+00 1.136685e+01 1701
2.544981e+01 1.624510e+01 1.981024e+01 1709
-4.358874e+01 7.689877e+00 1.126413e+01 1724
2.937807e+01 1.157377e+01 1.822339e+01 1735
4.596345e+00 7.393125e+00 1.039829e+01 1743
2.057115e+01 4.549546e+00 1.873773e+01 1744
3.322266e+01 8.140095e+00 4.059307e+00 1752
4.722910e+01 1.229207e+01 1.461923e+01 1754
-4.017217e+01 2.268835e+01 2.111497e+01 1756
1.265596e+01 9.686575e+00 2.187696e+01 1757
-4.043829e+01 1.754139e+01 6.564416e-02 1761
2.471416e+01 -2.100209e+00 6.672091e-01 1763
2.343345e+01 -2.228926e+01 2.880109e+01 1772
-4.522033e+01 6.834883e-01 1.961051e+01 1773
-5.774422e+00 -1.973859e+01 1.733408e+01 1777
3.709469e+01 -1.205266e+01 1.200069e+00 1779
4.827351e+01 -1.133108e+01 2.601243e+01 1782
1.860296e+01 1.435033e+01 1.095736e+01 1784
-3.508238e+01 -9.315242e+00 1.986200e+01 1794
-3.160640e+01 -2.240154e+01 2.157567e+01 1810
-4.369370e+01 8.384277e+00 9.590036e+00 1811
4.061568e+01 -6.402918e+00 2.698755e+01 1862
-2.538440e+01 4.179017e+00 1.540836e+01 1874
1.266309e+01 1.397299e+01 1.550892e+00 1876
3.520823e+01 -2.401085e+01 1.413339e+01 1877
2.787075e+01 2.135604e+01 1.768572e+01 1888
4.700130e+01 1.799260e+01 2.342878e+00 1895
-1.541539e+01 4.243334e-01 8.001460e+00 1906
4.986939e+01 -1.241210e+01 2.448397e+01 1908
2.794117e+01 -1.395766e+00 6.663274e+00 1912
-3.080585e+01 1.796469e+01 1.935668e+01 1920
1.371399e+01 1.837914e+01 1.810118e+01 1931
-4.388410e+01 2.385749e+01 3.884497e+00 1933
4.787296e+01 8.869049e+00 2.581050e+01 1959
1.712753e+00 5.021897e+00 2.066436e+01 1968
-1.941606e+01 3.331646e+00 1.346986e+01 1972
-2.638784e+01 2.324371e+01 1.146214e+00 1973
4.552215e+01 1.953618e+00 1.446934e+01 1984
5.464720e+00 -9.929404e+00 1.829161e+01 1987
4.880603e+01 -2.427274e+01 9.895791e+00 1988
2.145954e+01 5.320298e+00 2.552575e+01 1990
4.896117e+01 1.403480e+01 2.312217e+01 1996
1.801943e+01 1.325230e+01 7.519320e+00 1997
-2.363917e+01 -5.473962e+00 2.305131e+01 2002
1.328011e+01 1.936429e+00 2.798225e+01 2009
3.689348e+01 -2.746300e+00 2.689098e+01 2042
1.916261e+01 1.300963e+01 1.345016e+01 2044
-7.433660e+00 -1.681049e+01 2.667514e+01 2054
8.358135e+00 8.203497e+00 8.669218e+00 2057
1.818382e+01 2.231020e+01 1.996352e+01 2062
-1.427848e+01 9.543309e+00 1.864522e+01 2063
1.180696e+00 9.946000e+00 8.756361e+00 2091
-4.694609e+01 5.523425e+00 8.530257e+00 2092
-2.576968e+01 -1.465291e+01 1.761767e+01 2093
2.991462e+01 7.597646e+00 2.588257e+00 2094
-3.431969e+01 1.955911e+01 2.813897e+01 2109
-9.909749e+00 -6.336953e+00 6.574132e+00 2118
-2.900078e+01 2.467831e+01 5.055193e+00 2126
4.553393e+01 9.823895e+00 4.115073e+00 2128
1.388327e+01 -1.526677e+01 1.839413e+01 2129
-1.437748e+00 2.045468e+01 2.453287e+01 2137
1.140532e+01 2.996793e+00 6.083687e+00 2142
4.413518e+01 1.000593e+01 1.457899e+01 2145
2.279858e+01 2.373036e+01 2.534549e+01 2148
-9.264693e+00 -1.543290e+01 1.290442e+01 2153
3.523287e+01 1.478403e+01 1.400681e+01 2154
-1.540064e+01 1.913805e+01 1.783955e+01 2159
1.140735e+01 -6.163056e-01 1.327779e+01 2166
-4.178555e+01 7.667254e+00 9.117099e+00 2191
1.015452e+01 2.335110e+01 1.836734e+00 2200
-7.270306e+00 -8.862936e+00 1.182386e+01 2210
-3.774104e+01 7.609094e+00 2.463841e+01 2217
1.476298e+01 -4.947906e+00 2.497621e+01 2227
8.624112e+00 -1.301964e+01 2.799701e+01 2233
3.394055e+01 2.536085e+00 4.107466e+00 2234
3.911605e+01 -1.902644e+01 2.488655e+01 2238
-2.996005e+01 9.628602e+00 2.400932e+01 2240
-3.677465e+01 -1.149846e+01 2.295233e+01 2244
-7.981246e+00 1.812460e+01 1.061824e+01 2252
-4.164869e+01 -1.249559e+01 3.772799e+00 2253
4.535506e+01 -2.475491e+01 2.035523e+01 2258
-4.298522e+01 9.054351e+00 1.035395e+01 2269
3.579334e+01 -5.514510e-01 6.028250e+00 2270
2.185785e+01 1.918430e+01 2.594215e+01 2287
1.004890e+01 8.991836e+00 1.569588e+01 2292
-3.287246e+01 1.315791e+01 2.177177e+00 2297
-1.806327e+01 -7.068400e+00 2.878642e+01 2307
2.773232e+01 1.070033e+01 8.800274e+00 2314
3.629899e+01 9.055884e+00 1.756328e+01 2334
1.349845e+01 7.463522e+00 2.897976e+01 2357
-9.919103e+00 2.370378e+01 2.663947e+01 2361
-1.871489e+01 9.751338e+00 2.489297e+01 2372
-2.117722e+01 -1.508617e+01 7.247068e-01 2386
-4.694738e+01 2.009956e+01 1.402669e+01 2391
6.084501e+00 2.271706e+01 2.442589e+01 2399
3.768317e+01 -9.433270e+00 2.721106e+00 2408
8.261415e+00 2.291834e+01 1.203600e+00 2425
-3.046710e+01 -8.629400e+00 2.315103e+01 2442
2.496584e+01 1.810119e+01 2.377150e+01 2451
-1.046142e+01 -1.614857e+01 2.224168e+01 2452
-1.568482e+01 -1.719364e+01 1.922519e+01 2454
4.577058e+01 -1.627752e+01 2.791418e+01 2494
-2.460100e+01 -6.706463e+00 1.755318e+01 2520
4.325110e+01 -2.307638e+01 1.581205e+01 2526
-2.770343e+01 1.221216e+00 1.350733e+00 2528
2.485343e+01 -1.850079e+01 2.525998e+01 2542
-2.802858e+01 8.923561e+00 2.198942e+01 2544
-1.463202e+01 1.184732e+01 1.691808e+01 2556
-1.193764e+01 -1.589670e+00 2.669958e+01 2566
-1.843725e+00 -1.217528e+01 5.189846e+00 2571
-7.566136e+00 9.953920e+00 1.489329e+01 2586
2.472962e+01 -8.289070e+00 2.281803e+01 2587
-3.452441e+01 2.229438e+01 2.960974e+01 2594
4.410205e+01 -3.029625e+00 1.459850e+01 2595
-8.948471e-01 1.481611e+01 7.714223e+00 2597
1.016916e+01 1.825200e+01 1.196655e+01 2598
-9.226706e+00 -2.235018e+01 1.815466e+00 2607
-1.510728e+01 -2.221629e+01 2.581696e+01 2633
2.966450e+01 2.175714e+01 2.704111e+01 2637
2.341953e+01 2.266856e+01 1.224511e+01 2640
1.899284e+01 -1.295161e+01 1.082800e+01 2644
-1.144435e+01 -9.415836e+00 4.443978e+00 2646
-4.491816e+01 -1.888089e+01 9.273262e+00 2649
-7.161632e+00 -1.697210e+01 2.712049e+01 2651
-4.279568e+01 -1.394094e+01 1.446784e+01 2653
-3.944467e+01 5.078778e+00 2.202714e+01 2670
-1.614364e+00 1.127234e+01 3.174489e+00 2704
-1.686676e+01 -1.967814e+01 1.559953e+01 2710
4.513146e+01 -4.437418e+00 2.692803e+01 2713
2.448480e+01 -5.563695e-01 9.931509e-01 2717
3.566429e+01 1.680216e+01 2.152663e+01 2731
4.526052e+01 -1.354513e+01 2.751503e+01 2734
2.846432e+01 -1.651009e+01 2.980584e-02 2739
-2.477650e+01 8.366489e+00 1.390598e+01 2752
-4.021800e+01 5.908319e+00 1.671036e+01 2760
-1.521975e+01 -2.292762e+01 2.925519e+01 2765
4.468461e+01 1.147733e+01 1.520368e+00 2769
4.340659e+01 8.116886e+00 2.447069e+01 2771
-2.074833e+01 -2.143525e+01 2.785597e+01 2772
2.513294e+01 -1.877214e+01 3.476203e+00 2782
6.055220e+00 -1.060693e+01 2.967054e+01 2787
-2.202986e+01 4.649748e+00 1.379888e+00 2795
1.988347e+01 -9.349673e+00 2.424228e+01 2800
1.300103e+00 -2.283529e+01 8.483636e+00 2814
1.496429e+01 1.711433e+01 2.757641e+01 2816
-3.581914e+01 2.238487e+01 4.233262e+00 2836
-3.303402e+01 -1.609448e+00 9.910672e+00 2848
-4.859569e+01 4.624735e+00 2.687691e+01 2860
-3.967446e+01 1.827258e+00 2.407124e+01 2866
-9.227278e+00 9.673133e+00 5.071153e+00 2868
-4.381691e+01 -5.151025e+00 1.399924e+01 2874
-1.718444e+01 -2.308211e+01 2.077516e+00 2877
1.902147e+01 1.118144e+00 4.194783e+00 2879
4.661749e+01 2.166613e+01 2.316633e+01 2883
4.185091e+00 1.555164e+01 6.803755e+00 2906
-1.078441e+01 1.040741e+01 2.452477e+01 2907
3.531223e+01 1.864353e+01 2.001167e+00 2923
-2.622802e+01 -1.983216e+01 2.410056e+01 2926
-2.611815e+01 -7.326421e-01 1.353750e+01 2940
-2.757746e+01 1.915872e+01 1.874778e+01 2943
4.213759e+01 -1.367715e+01 1.935136e+01 2952
2.645344e+01 -5.158293e+00 2.087764e+00 2956
5.992000e+00 -2.148441e+01 1.110009e+01 2970
-4.822428e+01 -2.145342e+00 3.847243e+00 2971
2.701184e+01 -1.160043e+01 2.823804e+01 2982
1.454502e+01 1.160883e+01 1.587422e+01 2990
-3.226099e+01 1.646382e+01 1.786534e+01 2995
-2.080422e+01 5.505662e+00 1.000327e+01 2998
-1.465762e+01 1.611546e+00 1.119265e+00 3008
7.538519e+00 5.711246e+00 2.935620e+01 3025
-3.871838e+01 6.072597e+00 2.622159e+01 3028
3.243479e+01 -2.469807e+01 8.594252e-01 3044
1.710859e+01 1.802716e+01 2.331507e+01 3059
-4.479162e+01 -1.959915e+01 2.068845e+01 3067
3.837817e+00 -9.804202e+00 2.200761e+01 3081
2.021552e+01 8.485814e-01 1.947182e+01 3083
-2.352986e+01 -1.080928e+01 1.114460e+01 3089
-3.568329e+01 -1.846169e+01 1.608849e+01 3103
8.143439e+00 1.055154e+01 1.009000e+01 3104
-2.848617e+01 1.622690e+01 2.958928e+01 3120
1.745102e+01 1.713598e+01 7.885394e+00 3123
-1.517330e+01 -1.133466e+01 2.923593e+01 3134
-4.860754e+01 -1.022525e+01 2.029987e+01 3140
2.705822e+01 -2.410255e+00 6.877746e-01 3156
4.574011e+01 -8.619673e+00 2.925108e+00 3157
-4.223821e+01 -1.653310e+01 2.745766e+00 3198
1.141386e+01 -6.956129e+00 2.666956e+01 3200
4.808412e+01 2.409123e+01 2.822928e+01 3209
4.215432e+01 2.249858e+01 2.745697e+01 3218
-2.334811e+01 1.594728e+01 1.976726e+00 3223
-1.318164e+01 1.211574e+00 1.335863e+01 3244
3.060632e+01 5.497976e+00 2.007559e+01 3248
2.535523e+01 -1.353351e+01 2.410430e+01 3254
-4.638272e+01 -1.957930e+01 2.680350e+00 3258
4.536999e+01 -3.574352e+00 1.089084e+01 3259
4.385204e+00 2.051745e+01 2.696971e+01 3262
4.824810e+01 -4.282231e+00 1.910982e+01 3263
3.136494e+01 -1.684708e+01 3.983570e+00 3273
-4.671464e+00 -2.056731e+01 2.338120e+01 3285
4.175731e+01 -1.637616e+01 3.540380e+00 3308
2.635718e+01 1.574421e+01 5.558505e+00 3317
-3.973120e+01 -7.258758e+00 6.443687e-01 3321
-2.775207e+01 2.481424e+01 2.180172e+01 3322
-3.776628e+01 -2.145053e+01 2.942988e+01 3323
2.347463e+01 9.908644e+00 3.328357e+00 3333
3.489972e+01 1.329283e+01 1.423967e+01 3347
2.085104e+01 -1.005129e+01 3.759127e+00 3348
-2.059505e+01 -2.094858e+01 3.928180e+00 3353
-1.653835e+01 -2.046741e+01 2.805656e+01 3357
3.720405e+01 -6.998659e+00 1.012084e+01 3366
-2.279170e+01 1.193430e+01 9.820393e+00 3375
4.194454e+01 -6.281641e+00 1.478996e+00 3398
-3.776225e+01 1.706708e+01 6.066337e+00 3402
-4.186857e+01 1.135656e+01 2.752909e+01 3415
-2.228739e+01 1.684088e+01 2.419108e+00 3431
-6.289860e-01 -8.044689e+00 2.098123e+01 3433
2.954984e+01 -1.492860e+01 2.932986e+01 3445
-3.672093e+01 -2.275757e+01 2.108827e+01 3447
3.300729e+01 1.720498e+01 2.208552e+01 3456
-2.433695e+01 -9.071448e+00 2.137424e+01 3460
-4.356342e+01 2.042936e+01 2.399265e+01 3461
4.690957e+01 -2.335586e+01 1.922270e+01 3463
1.630294e+00 8.302010e+00 2.968278e+01 3464
-3.510455e+01 -1.318803e+00 1.531514e+01 3484
1.981965e+01 -2.382386e+01 3.840890e+00 3487
2.528146e+01 -6.568904e+00 2.236211e+01 3488
2.416910e+01 1.714375e+00 8.068757e+00 3491
3.519127e+01 -3.832104e+00 1.764914e+01 3492
-1.012394e+01 2.985569e+00 2.693243e+01 3498
7.278030e+00 -1.215000e+01 1.255432e+01 3503
-3.644010e+01 -2.416646e+01 2.157082e+01 3526
2.555247e+00 1.517943e+01 2.116507e+01 3527
-4.149567e+01 -4.552671e+00 9.195153e+00 3532
3.218022e+01 -3.450504e-01 7.125708e+00 3535
-3.083120e+01 -1.734880e+01 2.063744e+01 3538
-2.459822e+01 -6.953959e+00 1.624095e+01 3562
4.885946e+01 -1.758209e+01 1.520294e+01 3578
2.462028e+01 8.659451e+00 9.974646e+00 3593
-2.951307e+01 -2.346571e+01 5.646292e+00 3604
-2.121585e+01 -1.571901e+01 1.474304e+01 3612
1.585714e+01 -1.118782e+01 2.387540e+01 3614
4.274216e+01 -6.076843e+00 1.416142e+01 3621
-4.661997e+01 -1.578204e+01 2.169262e+01 3626
-3.601114e+01 -1.548464e+00 1.068394e+01 3639
-4.903706e+01 5.280431e-01 2.403996e+01 3643
-3.022944e+01 1.031486e+01 2.383636e+00 3652
-7.124992e+00 -1.842958e-02 1.119207e+01 3659
-2.157144e+01 -1.584897e+01 1.530863e+01 3663
1.903474e+01 2.095494e+01 1.936350e+01 3669
4.604401e+01 -2.033754e+00 1.623181e+00 3675
4.318857e+01 -5.173820e+00 1.901860e+00 3677
-1.260489e+00 -1.717383e+01 4.568541e+00 3679
-3.147141e+01 5.860576e+00 1.680495e+01 3682
-3.747496e+01 -1.272266e+01 2.013717e+01 3685
-3.218866e+01 7.433674e-01 2.024318e+00 3686
4.267925e+01 -1.243967e+01 8.138973e+00 3713
4.700699e+01 -2.953046e+00 2.579177e+01 3717
-1.855161e+01 1.122028e+01 2.097287e+01 3727
-2.187872e+01 -1.166163e+01 2.872673e+01 3729
-2.643097e+01 -2.413608e+01 9.611894e+00 3730
2.293303e+01 -5.829735e-01 2.068729e+01 3733
-5.785200e+00 4.838858e-01 7.468405e+00 3734
2.597176e+01 1.645934e+01 2.908898e+01 3736
2.875991e+01 5.341376e-01 7.935644e+00 3741
1.355727e+01 1.222905e+01 2.809837e+01 3747
-4.740754e+01 -1.464694e+01 2.892331e+01 3755
-6.188959e+00 -1.553414e+01 1.470643e+01 3758
-1.963430e+01 -9.401376e+00 2.671280e+01 3760
-4.566839e+01 2.722443e+00 2.949109e+01 3761
-3.497603e+00 -1.816937e+01 1.504464e+01 3762
-4.592876e+01 -6.009031e+00 2.459300e+01 3766
3.875120e+01 1.797282e+01 2.546505e+01 3771
-3.223498e+01 -4.418182e+00 2.367396e+01 3780
4.497842e+01 2.895805e+00 8.158704e+00 3788
-9.054205e+00 -1.322876e+01 2.073310e+00 3798
2.454090e+01 -1.741105e+01 2.741389e+01 3800
9.158786e+00 -1.549233e+01 1.462178e+01 3801
2.928075e+01 2.036879e+01 1.807695e+01 3804
-2.223596e+01 8.936378e+00 1.108937e+01 3820
3.870069e+01 -6.633574e+00 3.107765e+00 3836
9.677834e+00 -1.263498e+01 3.959916e+00 3844
-3.986670e+01 1.349449e+01 2.545066e+01 3849
-1.986545e+01 -4.491539e+00 1.750531e+01 3854
3.348686e+01 1.462894e+01 1.942385e+01 3856
3.877506e+01 1.973305e+01 1.836068e+00 3857
6.064225e+00 2.122735e+01 1.686727e+01 3858
3.464025e+01 1.464976e+01 1.493184e+01 3859
-1.574840e+01 -2.459479e+01 1.592500e+01 3865
4.773530e+01 1.860883e+01 1.794908e+01 3880
3.233253e+01 -6.130345e+00 8.636157e+00 3889
1.547796e+01 -1.989726e+01 1.580373e+00 3910
4.765090e+00 -2.183385e+01 2.235921e+01 3911
4.462641e+01 -2.176289e+01 1.915140e+01 3929
4.679285e+01 -4.943365e+00 2.767723e+01 3930
-2.999570e+01 2.174458e+01 2.256210e+01 3935
3.518769e+01 -2.782591e+00 4.905743e+00 3953
1.598229e+01 5.813695e+00 2.475396e+01 3957
3.063786e+01 1.899284e+01 2.568670e+01 3963
4.357664e+00 7.751940e+00 1.463209e+01 3969
2.669682e+01 1.949249e+01 8.815071e-01 3973
-3.504736e+01 -1.239013e+01 2.278032e+01 3984
-1.505592e+01 -9.145804e+00 1.990520e+01 3989
-3.223427e+01 -1.919278e-01 6.200401e+00 4011
3.804687e+01 1.834391e+01 1.188923e+01 4016
8.430188e+00 -1.313452e+00 1.985239e+01 4017
-1.558384e+01 -7.057134e+00 1.189740e+01 4020
-4.518975e+01 9.383916e+00 2.104564e+01 4029
3.732362e+01 -9.098339e+00 2.909946e+01 4034
-5.533554e+00 8.442177e+00 1.608223e+01 4036
-6.573547e-01 -1.405071e+00 4.918666e+00 4037
-1.362800e+01 -6.945721e+00 8.436342e+00 4039
-3.463762e+00 3.240662e+00 2.698586e+01 4046
-4.690907e+01 -9.299852e+00 1.252565e+01 4057
4.751392e+01 -1.755272e+01 2.964545e+01 4061
1.913319e+01 8.529933e+00 2.557720e+01 4066
-3.820108e+01 -7.973107e+00 8.847513e+00 4079
2.663153e+01 1.408672e+01 7.642050e+00 4080
-3.245298e+01 5.907883e+00 1.532097e+01 4088
-2.528386e+01 -2.233528e+01 1.039165e+01 4104
4.257077e+01 -1.578063e+01 2.259288e+01 4106
3.559224e+01 -2.461324e+01 7.027500e+00 4120
2.435361e+01 1.863978e+01 1.302006e+01 4144
-4.743829e+01 1.525752e+01 2.476141e+01 4150
-2.457555e+01 -3.676947e+00 1.483595e+01 4152
4.592296e+01 1.450428e+01 2.385009e+01 4161
-1.046434e+01 -2.496958e+01 1.422133e+01 4165
4.005974e+01 -4.926623e+00 5.535346e+00 4170
8.532717e+00 4.320864e+00 2.020950e+01 4172
-6.074955e+00 -3.252547e+00 1.541393e+01 4178
1.761896e+01 1.611436e+01 1.247963e+01 4183
-5.449804e-01 1.099455e+01 2.890001e+01 4184
2.434949e+01 -1.517522e+01 3.285609e+00 4194
-1.524234e+01 7.517349e+00 2.679427e+01 4201
1.853842e+01 -2.411159e+01 1.434997e+01 4209
-4.046208e+00 -2.333231e+01 4.279450e+00 4211
1.332155e+01 2.138400e+01 2.449431e+01 4239
-4.908178e+01 -1.851551e+01 2.166489e+01 4244
1.901599e+01 1.686049e+01 4.122720e+00 4245
3.601342e+01 7.098167e+00 2.036100e+00 4248
2.224047e+01 -1.938648e+01 1.548663e+01 4252
-1.344744e+01 -2.668918e+00 2.488105e+01 4256
-9.478316e+00 1.456069e+01 6.763301e+00 4265
1.879171e-01 2.137515e+01 2.264821e+01 4266
2.229846e+01 8.547543e+00 2.505200e+01 4268
4.140953e+01 -1.729545e+01 2.405131e+01 4302
4.934784e+01 1.514773e+01 1.768125e+01 4304
-3.841966e+01 5.079197e-01 2.291411e+01 4308
-2.964353e+01 2.320254e+00 3.028877e+00 4314
3.651858e+01 -7.908366e+00 2.474005e+01 4318
3.496874e+01 8.343067e+00 1.665128e+01 4325
-1.495416e+01 -1.507964e+01 2.529982e+01 4332
1.604231e+01 -1.208346e+01 8.893751e+00 4340
-1.057036e+01 3.983578e+00 2.248058e+01 4347
-2.898675e+01 -4.243423e-01 5.139055e-01 4351
9.416485e+00 -5.718465e+00 1.306593e+01 4352
-2.086069e+01 1.002121e+01 2.812727e+01 4353
1.630914e+01 1.671601e+01 2.905167e+00 4359
-4.184617e+01 1.514982e+01 1.238430e+01 4360
-2.252751e+01 8.939407e+00 3.250305e+00 4370
4.327318e+01 -8.870678e+00 4.374061e+00 4378
-2.670094e+01 1.967885e+01 1.067771e+01 4389
1.582514e+01 -2.096291e+01 6.685402e+00 4395
8.335377e+00 1.546121e+01 2.369904e+01 4396
-1.386268e+01 2.139669e+01 1.992224e+01 4402
3.522298e+00 -1.708398e+00 1.814552e+01 4404
4.155685e+01 -9.338251e+00 2.879872e+00 4408
4.779528e+01 -2.007505e+01 2.192462e+01 4409
1.228686e+01 9.903540e+00 7.380413e-01 4423
-3.062447e+00 -3.431827e+00 2.709291e+01 4432
-2.696091e+01 1.472985e+01 1.755431e+01 4434
-3.617118e+01 2.433468e+00 1.395075e+01 4435
1.864362e+01 1.155755e+01 1.421008e+01 4448
-2.530049e+01 1.221586e+01 2.852373e+01 4453
-4.325097e+01 8.810979e+00 2.443238e+01 4462
-1.452386e+01 1.939828e+01 2.626287e+01 4470
-1.621117e+01 2.340206e+01 4.530459e+00 4480
2.389976e+01 2.072671e+01 1.490504e+01 4481
3.254239e+01 2.909145e+00 2.346756e+01 4485
-1.146250e+01 1.238208e+01 1.422739e+01 4488
1.475652e+01 -8.289614e+00 8.659555e+00 4511
2.058073e+01 -5.214763e-02 2.022056e+01 4515
3.022011e+01 2.616093e+00 1.083017e+01 4524
-7.019674e+00 -2.042296e+01 1.027036e+01 4534
1.655079e+00 9.968733e+00 2.410073e+01 4537
-1.603589e+01 1.284175e+01 4.443437e+00 4538
6.988275e+00 1.261912e+00 2.098645e+01 4541
-2.947142e+01 1.302197e+01 1.029932e+01 4544
-4.614808e+00 1.942617e+01 1.735534e+01 4578
1.638838e+01 1.194223e+01 1.961913e+01 4584
-3.958443e+01 6.200270e+00 1.695787e+01 4602
2.945411e+01 -1.111977e+01 8.826335e+00 4606
4.777754e+01 1.999500e+01 3.354722e+00 4614
4.465784e+01 -7.554080e-01 4.479242e+00 4618
7.317070e+00 -2.206776e+00 8.076475e+00 4620
-3.208839e+01 -5.225241e+00 9.598122e-02 4621
3.833085e+01 -1.251306e+01 7.615130e+00 4623
-6.190855e+00 -2.269182e+01 6.753487e+00 4624
3.720574e+01 2.890697e+00 1.502809e+01 4626
1.050116e+01 -3.183446e+00 1.873500e+01 4635
-3.476002e+01 1.714541e+01 2.731355e+01 4636
-4.160355e+01 6.616324e-01 2.264379e+01 4638
-4.388661e+01 -1.160721e+01 1.973196e+01 4640
4.733509e+01 1.422708e+01 2.811301e+00 4645
-4.415826e+01 -1.490597e+01 2.967061e+01 4646
1.053194e+01 -2.224578e+01 1.612095e+01 4654
1.905951e+01 -5.592875e+00 1.595073e+01 4659
-2.018131e+01 1.771059e+01 2.379775e+01 4660
1.876787e+00 -2.321111e+01 1.218371e+01 4663
-5.462712e+00 2.768032e+00 2.410360e+01 4665
-1.837947e+01 -1.876642e+01 1.687501e+01 4667
1.274715e+01 -2.334973e+00 2.250935e+01 4668
2.520257e+01 -2.458532e+01 2.670222e+01 4673