Title = Snapshot #44
Variables=X Y Z PartID
Zone I= 6358, F=POINT
1.166389e+01 -1.193507e+01 2.161341e+01 2
3.274349e+01 -2.469264e+01 1.981736e+01 6
1.512773e+01 1.083104e+01 2.755974e+01 8
1.199442e+01 2.183807e+01 2.243368e+01 12
-3.018870e+00 6.019191e+00 1.037061e+01 14
-3.075521e+01 1.869732e+01 8.181190e-01 17
-2.117293e+01 1.220834e+01 7.965449e+00 18
-3.146016e+01 -2.251904e+01 2.248800e+01 21
-1.410821e+01 -1.475654e+01 2.492652e+01 23
2.142346e+01 -1.117612e+01 1.565930e+01 31
-1.338491e+01 -1.815346e+00 6.475599e+00 41
9.079903e+00 7.534294e+00 1.501427e+01 42
-1.896348e+01 5.288433e+00 1.934165e+01 45
-3.974829e+01 -2.176743e+01 2.597834e+01 74
-2.772537e+01 -1.143209e+01 8.838500e+00 80
5.361657e+00 2.234707e+01 1.371806e+01 82
-4.460551e+01 -1.502547e+01 2.379439e+01 83
-4.608023e+01 1.127838e+01 2.535686e+01 90
2.772504e+01 1.348018e+01 7.536355e+00 91
3.303779e+01 -1.161976e+01 2.224019e+01 95
3.711947e+01 1.232366e+01 2.362974e+01 98
4.781672e+01 1.136685e+01 1.663389e+01 135
9.346427e+00 -7.720003e+00 1.734900e+01 137
3.655218e+01 8.609332e+00 1.275491e+01 150
-1.649209e+01 -5.178444e+00 7.456623e+00 158
3.199242e+01 1.621699e+00 1.509323e+01 171
2.649500e+01 1.391062e+01 5.972024e+00 181
-4.719205e+01 -6.199960e+00 1.947312e+01 199
-6.308826e+00 4.612567e+00 1.066334e+01 214
-1.696740e+01 1.998352e+01 4.392094e+00 217
-3.576228e+01 -1.529883e+01 2.544634e+01 219
3.415527e+00 2.890303e+00 1.173823e+01 233
-4.188313e+01 1.499982e+01 8.909423e+00 234
2.573235e+01 -1.403663e+01 5.378912e+00 257
-4.987600e+01 1.710090e+01 2.410239e+01 278
-3.985292e+01 -1.627849e+01 1.936342e+01 279
1.214571e+01 2.126092e+00 2.119214e+01 295
-4.010854e+01 -1.777939e+01 4.527311e+00 309
3.979800e+01 -1.913935e+01 6.202096e+00 317
1.332800e+01 1.251777e+00 2.736263e+01 319
1.305465e+01 -1.708266e+01 2.635644e+01 321
-3.878149e+01 1.570320e+01 2.039072e+01 325
-4.495417e+01 -1.157562e+01 1.796538e+00 329
4.087394e+01 1.977000e+01 2.966544e+01 337
-2.976214e+01 -1.114416e+01 8.651671e+00 340
-4.742950e+01 2.360761e+01 1.587091e+01 348
4.688791e+01 2.373755e+01 2.932032e+01 352
4.929350e+01 1.342550e+01 1.778520e+01 363
-8.515249e+00 2.300351e+01 2.926134e+00 373
4.854544e+01 1.158766e+00 2.951015e+01 375
3.648683e+01 2.452910e+01 2.015171e+01 379
-2.395451e+01 1.150137e+01 4.444395e+00 396
1.901021e+01 1.047778e+01 1.085319e+01 412
2.611322e+01 -1.717643e+01 2.940385e+01 418
-8.514114e+00 -1.925205e+01 2.239934e+01 425
7.028032e+00 1.472733e+01 5.963812e-01 426
2.817173e-01 1.543831e-01 9.551581e+00 427
2.364188e+01 1.026585e+01 2.364784e+01 441
2.332149e+01 1.449926e+01 2.798314e+01 443
1.479044e+01 2.223658e+01 2.759122e+01 454
2.818678e+01 9.808663e+00 2.474115e+01 457
1.973079e+00 2.371090e+01 2.023379e+01 467
3.781396e+01 -1.491862e+01 7.568722e+00 477
-4.538083e+01 8.425290e+00 5.617885e+00 483
3.957280e+01 4.190919e+00 4.416072e+00 504
-6.591181e+00 5.459071e+00 1.538509e+01 505
1.943926e+01 1.463840e+01 2.939659e+01 506
8.158839e+00 -1.321381e+01 1.121363e+01 510
-3.503072e+00 1.042633e+01 9.531460e+00 521
-1.402284e+01 -2.199389e+01 1.046901e+01 524
-4.593584e+01 -1.847049e+01 2.591385e+01 525
-3.024671e+01 5.246047e+00 2.802045e+01 536
1.865983e+01 1.838633e+01 2.950441e+00 537
-2.639774e+01 2.443214e+01 1.295717e+01 543
-5.585908e+00 -1.028507e+01 2.661115e+01 555
-7.222487e+00 5.956830e+00 2.878782e+01 559
3.303343e+01 1.221973e+01 2.878960e+01 564
4.237035e+01 1.826784e+01 1.668692e+01 578
-4.212567e+00 1.987364e+01 5.168785e-01 581
-4.418239e+01 3.527761e+00 1.574837e+01 582
-2.660527e+01 1.404475e+01 1.443297e+01 588
4.833376e+01 2.115481e+01 1.623014e+01 591
2.271132e+00 1.534659e+01 2.784487e+01 594
-4.554097e+01 7.451351e+00 4.698750e+00 599
-5.125193e+00 -2.314229e+01 8.263120e-01 611
-4.554030e+01 2.108638e+01 1.076157e+01 618
-3.720845e+01 -7.219359e+00 1.487303e+01 626
4.221107e+01 1.832588e+01 3.021860e+00 629
-3.789023e+00 2.420186e+01 2.711672e+01 634
4.758109e+00 -1.360369e+01 6.445183e+00 636
-1.504814e+01 -8.174851e+00 2.068691e+01 640
2.796689e+01 1.548391e+01 1.799169e+00 650
-8.285887e+00 -3.333808e+00 1.987668e+01 661
-3.935242e+01 -7.666413e+00 9.822300e+00 667
1.515472e+01 -1.223506e+01 2.247980e+01 674
3.150391e+01 -1.259622e+01 2.650070e+00 675
8.536067e+00 -1.509619e+01 1.521184e+01 686
4.420293e+01 -7.138457e-02 2.008596e+01 687
2.253549e+01 -4.516062e+00 2.558189e+01 688
-1.917741e+01 -1.210898e+01 2.053737e+01 691
-2.551735e+01 -6.097490e+00 8.386115e+00 697
-2.635175e+01 1.684309e+01 1.414443e+01 701
-1.742928e+01 -9.043902e+00 2.683483e+01 702
-9.451702e+00 1.677184e+01 2.406450e+01 704
4.806058e+01 2.137767e+01 1.111453e+01 723
3.606657e+01 1.590919e+01 1.901346e+01 724
1.836966e+01 1.272675e+01 1.114327e+01 729
-2.759004e+00 -9.135655e+00 2.436284e+01 731
-4.472582e+01 -1.992181e+01 4.968911e+00 739
-2.244245e+01 1.544426e+01 1.692568e+01 743
3.953937e+01 1.111400e+01 2.606392e+01 747
-1.744198e+00 -9.056277e+00 4.057466e+00 749
3.412730e+01 -1.270997e+01 1.056188e+01 752
2.525150e+01 1.030033e+01 2.914299e+01 754
-1.889559e+01 1.525943e+00 1.754713e+01 763
5.382918e+00 -1.109234e+01 3.851666e+00 776
3.846259e+01 -7.767775e+00 1.270237e+01 783
-4.859139e+01 -1.145383e+01 1.483156e+01 787
-1.513651e+01 5.784227e+00 8.379589e+00 791
-6.463584e-01 -2.368122e+01 1.180854e+01 792
-1.970598e+01 1.861745e+01 2.187667e+01 793
6.207116e+00 1.558861e+01 2.727668e+01 797
1.289125e+01 -4.329261e+00 2.857063e+01 814
2.060525e+01 -9.590393e+00 2.640415e+01 823
-4.888811e+01 1.509224e+01 1.957078e+01 839
3.523126e+01 9.495389e-01 1.812601e+01 841
-4.074481e+01 -1.798626e+01 4.383450e+00 848
2.967271e+01 5.105393e+00 2.648225e+01 852
6.675144e+00 -5.785351e+00 5.413235e+00 853
1.567306e+01 8.035628e+00 1.123024e+01 860
2.015276e+01 -5.300515e+00 3.155731e+00 862
1.717448e+01 1.343132e+01 1.021418e-01 865
3.140137e+00 1.291472e+01 1.621077e+01 871
-7.946303e+00 -2.044709e+01 1.934709e+01 879
1.076084e+01 -1.696668e+01 2.402090e+01 890
-3.180046e+01 2.125181e+01 4.459749e+00 891
-2.603963e+01 1.905226e+01 2.842098e+01 892
-2.402137e+01 1.101407e+01 2.015054e+01 893
3.618359e+00 8.104364e-01 1.915050e+01 899
2.159200e+01 -2.452037e+01 1.466031e+01 901
4.254196e+01 5.944151e+00 1.276004e+00 903
-1.950381e+01 1.534618e+01 2.939948e+01 904
-2.310193e+01 8.510209e+00 1.713690e+01 918
3.204685e+01 2.481537e+01 4.085947e+00 920
-3.255937e+01 -6.409295e+00 2.497061e+01 928
-2.850383e+01 -1.013929e+01 1.506123e+01 961
-1.305864e+01 -6.336805e+00 2.794033e+01 973
1.881564e+01 8.826566e-01 2.161118e+01 980
-1.715348e+00 -1.403246e+01 2.207270e+00 984
3.051578e+01 1.641424e+01 2.691043e+01 994
-3.067373e+01 -9.356389e+00 7.063053e+00 1000
-4.701521e+01 -3.705919e+00 9.436973e+00 1006
-2.557349e+01 8.702364e+00 2.407259e+01 1010
-8.578686e+00 1.293141e+01 2.699351e+01 1013
-4.608756e+01 1.408544e+01 1.949516e+01 1018
-3.356228e+01 6.231340e+00 2.964783e+01 1019
1.271322e+00 -1.467598e+01 1.817834e+00 1024
-1.787723e+01 -8.838341e+00 2.371393e+01 1033
1.458447e+01 2.130022e+01 9.662791e+00 1054
5.752910e+00 -8.063788e+00 2.918725e+01 1056
-3.220730e+01 2.394457e+01 4.371041e+00 1058
-4.819540e+01 -1.678184e+01 1.948275e+01 1060
-4.300883e+01 3.974771e+00 5.597427e+00 1073
2.612799e+01 2.204014e+01 5.650051e+00 1091
2.782647e+01 1.912505e+01 6.109729e+00 1096
-3.619561e+00 -1.338626e+01 2.460068e+01 1100
5.737489e+00 1.016828e+01 1.035376e+01 1119
2.371834e+01 1.743291e+01 7.607731e+00 1133
-2.382008e+01 1.996490e+01 1.580591e+01 1137
2.067322e+01 1.233219e+01 3.837698e+00 1140
-2.937977e+01 -1.314261e+01 1.666442e+01 1147
-4.958795e+01 1.046723e+01 1.937491e+01 1161
2.027945e+01 1.654233e+01 1.411572e+01 1168
-4.164212e+01 -1.567516e+00 1.149144e+01 1174
-9.862153e+00 -2.288561e+01 5.462834e+00 1176
2.994118e+01 1.015774e+01 7.093118e+00 1183
-3.569902e+01 -2.077387e+01 8.158793e+00 1193
-2.403928e+01 -2.206343e+01 1.240613e+01 1196
-4.543059e+01 1.408674e+00 1.758709e+01 1198
-4.348891e+01 1.588215e+01 2.118807e+01 1222
7.330795e+00 1.779580e+01 3.888663e+00 1226
-1.027309e+01 1.293896e+01 1.796694e+01 1230
-4.138123e+01 -1.672576e+01 1.352778e+00 1232
2.968227e+01 1.673490e+00 6.683489e+00 1238
4.833634e+01 -2.838312e+00 1.176221e+01 1242
-3.881532e-01 -1.123645e+01 2.223708e+00 1250
-4.644484e+01 -1.840405e+01 4.098110e+00 1257
1.469419e+00 1.572107e+01 7.310262e-01 1260
4.025701e+01 5.487017e+00 2.457040e+01 1273
-2.554108e+01 -5.288397e+00 1.262493e+00 1278
-4.924040e+01 -1.958918e+01 9.204264e+00 1280
2.865212e+01 -9.239839e+00 1.927569e+00 1284
-1.085305e+01 5.719981e+00 2.396075e+01 1286
3.392495e+01 9.480825e+00 1.507136e+00 1292
-7.287107e+00 8.172515e+00 2.970986e+01 1296
2.186916e+00 1.778021e-01 2.851503e+01 1312
1.140227e+00 -5.455140e+00 2.183435e+01 1323
-1.311663e+01 -2.222938e+01 2.305393e+01 1326
-1.643502e+01 -2.039566e+01 2.275971e+01 1332
3.478968e+01 -2.162840e+01 2.366448e+01 1333
-4.259973e+01 2.724171e+00 1.809374e+01 1334
2.286972e+01 -1.851674e+01 1.563683e+01 1337
-1.586647e+01 3.103349e+00 2.789000e+00 1340
-3.337672e+00 -1.520184e+01 2.934984e+01 1342
5.212085e+00 4.497788e+00 2.149860e+01 1346
2.844892e+01 1.849832e+01 1.591817e+01 1350
1.485294e+01 -6.050885e+00 2.856772e+01 1351
4.056447e+01 7.623164e-01 1.826234e+01 1352
-7.053297e-01 -4.718614e+00 1.403828e+01 1356
1.261625e+01 -6.000833e+00 1.530252e+01 1362
-4.011308e+01 4.999271e+00 1.565711e+01 1374
3.667091e+01 7.749840e+00 1.188396e+01 1375
3.680010e+01 1.044390e+01 1.385294e+01 1382
2.086006e+01 -1.948400e+00 1.992580e+01 1385
2.102936e+00 -2.390054e+01 1.574110e+01 1395
-3.016709e+01 -2.459326e+01 2.298920e+01 1403
-4.946575e+01 -1.250523e+01 2.377781e+01 1411
1.782947e+01 1.236663e+01 1.345272e+01 1415
1.565318e+01 -1.832889e+01 1.928481e+01 1420
-3.894250e+00 2.008390e+01 6.362751e+00 1421
2.284505e+01 -1.828455e+01 1.920098e+01 1423
2.284829e+01 -1.217286e+01 9.040718e+00 1442
-4.569188e+01 2.340032e+01 1.506477e+01 1445
1.207640e+01 7.056252e-01 1.840232e+01 1451
1.212841e+01 9.351908e+00 1.463757e+01 1455
3.789342e+01 -9.115167e+00 1.559602e+00 1460
1.376128e+01 -1.702096e+01 1.950475e+01 1470
-1.722671e+01 -5.360636e+00 3.621648e+00 1471
-2.229825e+01 -8.777394e+00 2.210643e+01 1472
3.964248e+01 -9.063892e+00 1.447054e+01 1474
4.278610e+00 -1.497810e+01 1.555397e+01 1478
-3.949042e+01 1.802773e+01 2.377812e+01 1479
-1.404492e+01 -1.012631e+01 1.099420e+01 1493
3.095677e+01 -1.495010e+01 1.281770e+01 1496
-3.310059e+01 1.334621e+01 1.774992e+01 1502
2.132140e+01 1.841411e+01 1.719608e+01 1514
3.500049e+00 -1.284201e+01 2.936545e+01 1516
3.730586e+01 -2.801525e+00 7.288030e-02 1517
6.977573e-01 2.155396e+01 2.178598e+01 1518
-9.551065e+00 -1.818919e+01 7.809743e+00 1523
-4.603191e+01 -1.006136e+01 1.259870e+01 1543
-1.432861e+00 1.709950e+01 2.870312e+00 1546
3.456096e+01 -3.666961e+00 7.969509e+00 1551
-4.285966e+01 1.200179e+01 2.421946e+01 1562
1.361248e+01 1.816502e+01 2.864158e+01 1576
-2.810201e+01 1.076353e+01 2.302214e+01 1580
-3.584921e+01 1.536525e+01 2.216383e+01 1582
-5.374590e-01 -1.152002e+01 2.067408e+01 1589
-2.158048e+01 2.169861e+01 2.996431e+01 1591
-1.263229e+01 2.348025e+01 2.673041e+01 1595
2.204024e+00 9.669272e+00 2.496228e+01 1598
1.817044e+01 2.222891e+01 1.668398e+01 1606
7.841560e+00 -1.003314e+01 2.334641e+01 1615
2.314801e+01 -1.148402e+01 4.309678e+00 1617
3.572022e+01 -5.966403e+00 1.126027e+01 1620
-2.749465e+00 1.165210e+01 7.245272e+00 1623
2.761179e+01 2.186629e+01 2.371788e+01 1642
3.553009e-01 -3.529902e+00 1.745632e+01 1655
-3.605554e+01 1.679166e+01 4.043995e+00 1667
1.003573e+01 -2.184991e+01 2.057152e+01 1669
1.061980e+01 -7.090434e+00 1.685535e+01 1687
-3.763810e+01 -1.073304e+01 1.248107e+01 1701
2.792227e+01 1.594963e+01 1.897842e+01 1709
-4.086894e+01 7.818326e+00 1.248573e+01 1724
3.251107e+01 1.204137e+01 1.727338e+01 1735
6.945485e+00 7.569870e+00 1.117673e+01 1743
2.278095e+01 4.782689e+00 1.836237e+01 1744
3.486524e+01 8.528462e+00 4.211472e+00 1752
4.991750e+01 1.156248e+01 1.509690e+01 1754
-3.850372e+01 2.344547e+01 2.241298e+01 1756
1.607959e+01 1.064769e+01 2.239984e+01 1757
-4.024976e+01 1.751221e+01 5.961762e-02 1761
2.627582e+01 -1.407903e+00 9.169774e-01 1763
2.765483e+01 -2.175871e+01 2.829754e+01 1772
-4.370887e+01 2.363084e+00 1.906105e+01 1773
-3.462604e+00 -2.022469e+01 1.716601e+01 1777
3.889891e+01 -1.189669e+01 1.260200e+00 1779
2.033943e+01 1.437400e+01 1.115782e+01 1784
-3.305055e+01 -9.175040e+00 2.166953e+01 1794
-2.782142e+01 -2.270501e+01 2.343927e+01 1810
-4.110620e+01 8.613137e+00 1.164194e+01 1811
4.390132e+01 -6.415275e+00 2.777869e+01 1862
-4.978808e+01 -1.509252e+01 1.955918e+01 1866
-2.347238e+01 4.750982e+00 1.460578e+01 1874
1.558318e+01 1.371719e+01 1.514302e+00 1876
3.785997e+01 -2.362911e+01 1.441993e+01 1877
2.996018e+01 2.214846e+01 1.821136e+01 1888
4.844552e+01 1.880404e+01 2.469839e+00 1895
-1.278806e+01 3.402065e-02 7.250710e+00 1906
3.009441e+01 -1.385071e+00 7.204290e+00 1912
-2.831908e+01 1.929218e+01 2.169047e+01 1920
1.638462e+01 1.826530e+01 1.846995e+01 1931
-3.971352e+01 2.384582e+01 3.925116e+00 1933
4.970897e+00 4.531230e+00 2.164448e+01 1968
-1.793735e+01 3.628794e+00 1.176899e+01 1972
-2.474673e+01 2.341773e+01 6.338134e-01 1973
4.761545e+01 1.723943e+00 1.441962e+01 1984
7.509310e+00 -9.527749e+00 1.945087e+01 1987
2.344382e+01 5.081332e+00 2.569385e+01 1990
1.955974e+01 1.311932e+01 7.645528e+00 1997
-2.007222e+01 -5.246478e+00 2.291113e+01 2002
1.591185e+01 1.037909e+00 2.963271e+01 2009
4.021868e+01 -1.951263e+00 2.664884e+01 2042
2.124844e+01 1.334894e+01 1.316808e+01 2044
-5.232322e+00 -1.665893e+01 2.669992e+01 2054
1.005589e+01 7.851392e+00 8.731421e+00 2057
2.013338e+01 2.103756e+01 1.988968e+01 2062
-1.167039e+01 1.011587e+01 1.709764e+01 2063
3.727389e+00 9.394141e+00 8.940902e+00 2091
-4.345351e+01 5.941588e+00 8.766729e+00 2092
-2.395253e+01 -1.669179e+01 1.875724e+01 2093
3.135651e+01 7.556047e+00 2.749055e+00 2094
-3.033263e+01 1.958655e+01 2.824218e+01 2109
-7.180377e+00 -6.005989e+00 7.251205e+00 2118
-2.685889e+01 2.497670e+01 4.517860e+00 2126
4.735483e+01 9.952496e+00 3.976016e+00 2128
1.518594e+01 -1.538214e+01 1.907624e+01 2129
1.002698e+00 2.044425e+01 2.461586e+01 2137
1.271715e+01 2.540115e+00 7.005733e+00 2142
4.678701e+01 9.940206e+00 1.452023e+01 2145
2.591985e+01 2.283534e+01 2.534105e+01 2148
-6.855323e+00 -1.531423e+01 1.379687e+01 2153
3.761361e+01 1.428526e+01 1.376069e+01 2154
-1.290932e+01 1.941681e+01 1.588136e+01 2159
1.374338e+01 2.016985e-01 1.389532e+01 2166
-3.865950e+01 8.097851e+00 1.099134e+01 2191
1.206513e+01 2.302648e+01 1.619554e+00 2200
-4.771455e+00 -8.624275e+00 1.271540e+01 2210
-3.507606e+01 7.401193e+00 2.641346e+01 2217
1.713423e+01 -4.887078e+00 2.605452e+01 2227
1.261085e+01 -1.342416e+01 2.957545e+01 2233
3.549143e+01 2.449432e+00 3.908939e+00 2234
4.133072e+01 -1.895689e+01 2.526851e+01 2238
-2.587407e+01 9.099738e+00 2.454433e+01 2240
-3.453035e+01 -1.172806e+01 2.486579e+01 2244
-5.759244e+00 1.822177e+01 1.143710e+01 2252
-3.807732e+01 -1.244252e+01 4.259663e+00 2253
4.931538e+01 -2.418046e+01 2.021525e+01 2258
-4.004456e+01 9.417398e+00 1.235949e+01 2269
3.752573e+01 -7.433992e-01 5.712908e+00 2270
2.531957e+01 1.793960e+01 2.554319e+01 2287
1.197723e+01 1.040102e+01 1.654512e+01 2292
-3.070098e+01 1.221786e+01 2.101989e+00 2297
-1.485769e+01 -6.864899e+00 2.854903e+01 2307
2.979972e+01 1.101086e+01 8.934320e+00 2314
3.932797e+01 8.274171e+00 1.694812e+01 2334
1.652389e+01 7.146200e+00 2.973007e+01 2357
-6.356252e+00 2.383743e+01 2.663418e+01 2361
-1.572764e+01 9.681056e+00 2.405993e+01 2372
-1.874135e+01 -1.542577e+01 4.917639e-01 2386
-4.267888e+01 1.958765e+01 1.216544e+01 2391
9.476868e+00 2.312109e+01 2.482481e+01 2399
3.952011e+01 -9.756844e+00 2.431145e+00 2408
9.765077e+00 2.261715e+01 1.141659e+00 2425
-2.652531e+01 -8.461058e+00 2.422503e+01 2442
2.790584e+01 1.662980e+01 2.365183e+01 2451
-8.075643e+00 -1.556804e+01 2.156597e+01 2452
-1.503711e+01 -1.684116e+01 1.797077e+01 2454
4.874388e+01 -1.582634e+01 2.823415e+01 2494
-2.282334e+01 -7.703124e+00 1.642354e+01 2520
4.625443e+01 -2.227930e+01 1.595031e+01 2526
-2.642345e+01 9.064653e-01 1.075118e+00 2528
2.748924e+01 -1.817438e+01 2.481027e+01 2542
-2.434249e+01 7.775887e+00 2.257063e+01 2544
-1.257838e+01 1.186320e+01 1.526940e+01 2556
-8.920743e+00 -1.141127e+00 2.626486e+01 2566
1.188337e+00 -1.234959e+01 5.638403e+00 2571
-5.873945e+00 9.685765e+00 1.485604e+01 2586
2.733634e+01 -8.067763e+00 2.253438e+01 2587
4.624004e+01 -2.814724e+00 1.437901e+01 2595
1.436845e+00 1.418963e+01 7.901583e+00 2597
1.216953e+01 1.882915e+01 1.229612e+01 2598
-7.147679e+00 -2.173916e+01 1.077833e+00 2607
-1.095168e+01 -2.259352e+01 2.604182e+01 2633
3.349695e+01 2.066309e+01 2.729485e+01 2637
2.551079e+01 2.277436e+01 1.271652e+01 2640
2.126304e+01 -1.301697e+01 1.098002e+01 2644
-8.128776e+00 -9.312270e+00 4.280875e+00 2646
-4.119440e+01 -1.753926e+01 9.074992e+00 2649
-5.011556e+00 -1.674447e+01 2.716291e+01 2651
-4.040213e+01 -1.363018e+01 1.375077e+01 2653
-3.680953e+01 4.959200e+00 2.414544e+01 2670
3.525874e-01 1.076867e+01 2.682333e+00 2704
-1.536217e+01 -1.938735e+01 1.455793e+01 2710
4.810885e+01 -3.844625e+00 2.673876e+01 2713
2.583117e+01 -7.665917e-01 1.294111e+00 2717
3.865516e+01 1.736499e+01 2.135457e+01 2731
4.860862e+01 -1.353952e+01 2.781053e+01 2734
2.854439e+01 -1.651487e+01 2.702645e-02 2739
-2.457673e+01 9.051738e+00 1.342780e+01 2752
-4.741083e+01 2.411030e+00 2.850525e+01 2755
-3.743039e+01 6.358255e+00 1.827390e+01 2760
4.655326e+01 1.199701e+01 1.303427e+00 2769
-4.776504e+01 -4.629387e+00 2.969580e+01 2770
4.685923e+01 7.645785e+00 2.409687e+01 2771
-1.649354e+01 -2.146800e+01 2.793047e+01 2772
2.751017e+01 -1.819819e+01 3.226256e+00 2782
-1.985068e+01 4.271648e+00 1.080492e+00 2795
2.198052e+01 -8.927759e+00 2.370094e+01 2800
4.606720e+00 -2.301121e+01 8.869275e+00 2814
1.905505e+01 1.838483e+01 2.712429e+01 2816
-3.283606e+01 2.231687e+01 4.257046e+00 2836
-3.141183e+01 -1.862483e+00 1.108602e+01 2848
-4.632797e+01 5.593480e+00 2.678270e+01 2860
-3.822535e+01 1.750860e+00 2.565354e+01 2866
-6.127043e+00 8.661974e+00 4.542884e+00 2868
-4.051148e+01 -5.457291e+00 1.493021e+01 2874
-1.491262e+01 -2.207547e+01 1.381413e+00 2877
2.105021e+01 1.154778e+00 3.633847e+00 2879
4.984885e+01 2.196730e+01 2.403712e+01 2883
6.605373e+00 1.502008e+01 7.132290e+00 2906
-7.665473e+00 1.025240e+01 2.379356e+01 2907
3.716207e+01 1.928408e+01 2.138724e+00 2923
-2.153823e+01 -1.917428e+01 2.557148e+01 2926
-4.932591e+01 2.160983e+01 2.097163e+01 2938
-2.485150e+01 -5.473344e-01 1.276679e+01 2940
-2.475902e+01 1.902842e+01 1.952424e+01 2943
4.574089e+01 -1.333759e+01 1.915956e+01 2952
2.873294e+01 -5.015883e+00 2.247427e+00 2956
8.999992e+00 -2.180741e+01 1.143897e+01 2970
-4.644337e+01 -2.390810e+00 4.665375e+00 2971
3.029298e+01 -1.138102e+01 2.817146e+01 2982
1.660584e+01 1.245340e+01 1.527672e+01 2990
-3.054445e+01 1.683027e+01 2.071287e+01 2995
-1.945600e+01 5.922025e+00 8.725550e+00 2998
-1.163729e+01 1.183732e+00 1.429662e+00 3008
-3.604246e+01 6.128147e+00 2.795483e+01 3028
1.908701e+01 1.749796e+01 2.435257e+01 3059
-4.258718e+01 -1.992097e+01 2.004551e+01 3067
6.500621e+00 -1.011258e+01 2.312551e+01 3081
2.176723e+01 1.454619e+00 1.966518e+01 3083
-2.239358e+01 -1.116692e+01 1.028135e+01 3089
-3.311969e+01 -1.894673e+01 1.671758e+01 3103
9.518178e+00 1.008232e+01 1.047063e+01 3104
-2.416496e+01 1.619584e+01 2.925658e+01 3120
1.943821e+01 1.739673e+01 8.381354e+00 3123
-1.098339e+01 -1.106148e+01 2.853097e+01 3134
-4.643564e+01 -1.030488e+01 1.901139e+01 3140
2.810688e+01 -1.897263e+00 6.783868e-01 3156
4.749927e+01 -8.734536e+00 2.391858e+00 3157
-3.984246e+01 -1.686058e+01 3.559240e+00 3198
1.417290e+01 -7.495854e+00 2.806073e+01 3200
4.510327e+01 2.218692e+01 2.802873e+01 3218
-2.111553e+01 1.588223e+01 2.532815e+00 3223
-1.167594e+01 1.005346e+00 1.334191e+01 3244
3.290488e+01 5.840582e+00 2.065910e+01 3248
2.746276e+01 -1.310470e+01 2.351259e+01 3254
-4.350185e+01 -1.999055e+01 2.523722e+00 3258
4.676236e+01 -3.260522e+00 1.090996e+01 3259
7.311330e+00 2.111198e+01 2.777663e+01 3262
3.332177e+01 -1.682099e+01 4.361063e+00 3273
-3.237392e+00 -2.084012e+01 2.414142e+01 3285
4.377221e+01 -1.663756e+01 3.834326e+00 3308
-2.863283e+00 -2.433179e+01 1.140003e+01 3309
2.787069e+01 1.589531e+01 5.595939e+00 3317
-3.821021e+01 -7.059314e+00 6.183120e-01 3321
-3.363735e+01 -2.100711e+01 2.854982e+01 3323
2.521269e+01 1.070848e+01 3.631018e+00 3333
3.812560e+01 1.299960e+01 1.416687e+01 3347
2.211432e+01 -9.880749e+00 4.352530e+00 3348
-1.900532e+01 -2.210715e+01 4.492230e+00 3353
-1.310976e+01 -2.067747e+01 2.831272e+01 3357
3.917448e+01 -6.816752e+00 1.016378e+01 3366
-2.162409e+01 1.188704e+01 9.209473e+00 3375
4.389020e+01 -6.373782e+00 1.313831e+00 3398
-3.444417e+01 1.736068e+01 6.532881e+00 3402
-3.802090e+01 1.177915e+01 2.748080e+01 3415
-1.991125e+01 1.719975e+01 2.965112e+00 3431
1.343597e+00 -7.933663e+00 2.140138e+01 3433
3.323174e+01 -1.451970e+01 2.919280e+01 3445
-3.463407e+01 -2.167688e+01 2.274517e+01 3447
3.595505e+01 1.638439e+01 2.138190e+01 3456
-1.994852e+01 -9.223568e+00 1.957417e+01 3460
-4.089525e+01 2.050258e+01 2.516082e+01 3461
5.331431e+00 8.623798e+00 2.964903e+01 3464
-3.198247e+01 -1.115968e+00 1.712274e+01 3484
2.246328e+01 -2.367101e+01 4.073608e+00 3487
2.818389e+01 -5.821413e+00 2.179516e+01 3488
2.618849e+01 1.427878e+00 8.531553e+00 3491
3.777034e+01 -4.459678e+00 1.751404e+01 3492
-6.890623e+00 3.461792e+00 2.664817e+01 3498
9.700769e+00 -1.201919e+01 1.290406e+01 3503
-3.429802e+01 -2.273728e+01 2.240998e+01 3526
5.376979e+00 1.631230e+01 2.215270e+01 3527
-3.979326e+01 -4.380855e+00 1.019335e+01 3532
3.389498e+01 -8.254988e-01 7.034945e+00 3535
-2.831527e+01 -1.686516e+01 2.266166e+01 3538
-2.371990e+01 -7.313874e+00 1.537547e+01 3562
2.668514e+01 8.569322e+00 9.985188e+00 3593
-2.721550e+01 -2.459382e+01 6.183542e+00 3604
-1.952145e+01 -1.583176e+01 1.369815e+01 3612
1.826606e+01 -1.076163e+01 2.329612e+01 3614
4.445096e+01 -5.692275e+00 1.417542e+01 3621
-4.468626e+01 -1.617593e+01 2.051831e+01 3626
-3.365593e+01 -1.164536e+00 1.242577e+01 3639
-4.643830e+01 -5.888334e-01 2.352702e+01 3643
-2.770295e+01 9.730974e+00 2.626549e+00 3652
-5.007413e+00 -7.466569e-01 1.130270e+01 3659
-2.029643e+01 -1.471043e+01 1.421897e+01 3663
2.083585e+01 1.999788e+01 1.945529e+01 3669
4.782250e+01 -2.330435e+00 1.348104e+00 3675
4.525704e+01 -5.011962e+00 2.207972e+00 3677
1.684075e+00 -1.738243e+01 5.009145e+00 3679
-2.777034e+01 5.412990e+00 1.854746e+01 3682
-3.515284e+01 -1.229901e+01 2.182899e+01 3685
-3.093955e+01 7.027428e-01 1.774378e+00 3686
4.412667e+01 -1.204525e+01 8.063663e+00 3713
-1.572698e+01 1.134795e+01 1.846705e+01 3727
-1.898475e+01 -1.177113e+01 2.939147e+01 3729
-2.358931e+01 -2.402984e+01 9.664359e+00 3730
2.449515e+01 -5.357356e-01 2.118299e+01 3733
-2.237186e+00 -5.342697e-01 7.255982e+00 3734
2.903467e+01 1.543903e+01 2.900890e+01 3736
3.002787e+01 4.122868e-01 8.419724e+00 3741
1.730706e+01 1.274101e+01 2.848118e+01 3747
-4.433598e+01 -1.476893e+01 2.878793e+01 3755
-2.325244e+00 -1.547267e+01 1.551066e+01 3758
-1.568828e+01 -9.879252e+00 2.644332e+01 3760
-4.262422e+01 2.364927e+00 2.989346e+01 3761
-1.070126e+00 -1.804209e+01 1.652953e+01 3762
-4.297283e+01 -6.362986e+00 2.368372e+01 3766
4.201777e+01 1.833458e+01 2.462980e+01 3771
-2.939970e+01 -3.892913e+00 2.534694e+01 3780
4.703656e+01 2.949546e+00 7.949520e+00 3788
-6.714584e+00 -1.305224e+01 2.496084e+00 3798
2.775178e+01 -1.733716e+01 2.717541e+01 3800
1.119487e+01 -1.604693e+01 1.461942e+01 3801
3.086244e+01 2.123572e+01 1.843160e+01 3804
-2.127975e+01 9.138909e+00 1.054194e+01 3820
4.042651e+01 -6.754219e+00 2.881822e+00 3836
1.207739e+01 -1.229694e+01 4.077752e+00 3844
-3.598912e+01 1.270127e+01 2.538475e+01 3849
-1.801001e+01 -4.268308e+00 1.585649e+01 3854
3.647137e+01 1.478118e+01 1.923520e+01 3856
4.040870e+01 2.007480e+01 1.917180e+00 3857
7.879446e+00 2.190801e+01 1.659741e+01 3858
3.790398e+01 1.473624e+01 1.488335e+01 3859
3.441433e+01 -5.809899e+00 8.652541e+00 3889
1.796016e+01 -1.944526e+01 1.434579e+00 3910
7.138997e+00 -2.223433e+01 2.332044e+01 3911
4.814660e+01 -2.116459e+01 1.951634e+01 3929
4.964038e+01 -4.498058e+00 2.768243e+01 3930
-2.661874e+01 2.173452e+01 2.338062e+01 3935
3.697014e+01 -3.191262e+00 4.394993e+00 3953
1.811391e+01 5.335807e+00 2.578258e+01 3957
3.355690e+01 1.784487e+01 2.508716e+01 3963
6.058526e+00 7.419585e+00 1.568584e+01 3969
2.844343e+01 1.939452e+01 7.956378e-01 3973
-3.293725e+01 -1.314168e+01 2.500948e+01 3984
-1.259539e+01 -9.102260e+00 1.855254e+01 3989
-3.084678e+01 -6.927679e-01 6.570923e+00 4011
4.066014e+01 1.824029e+01 1.197506e+01 4016
1.156087e+01 -1.535015e+00 2.104834e+01 4017
-1.398072e+01 -7.237495e+00 1.039008e+01 4020
-4.321768e+01 9.523209e+00 2.062629e+01 4029
3.975212e+01 -9.064312e+00 2.934471e+01 4034
-3.075490e+00 8.957819e+00 1.686963e+01 4036
1.664398e+00 -2.684959e+00 5.238399e+00 4037
-1.166047e+01 -7.197491e+00 8.186693e+00 4039
-2.678080e-01 2.376293e+00 2.738738e+01 4046
-4.390137e+01 -9.986601e+00 1.174808e+01 4057
2.077517e+01 8.239380e+00 2.557126e+01 4066
-3.635817e+01 -7.514677e+00 9.792669e+00 4079
2.847098e+01 1.443640e+01 8.061483e+00 4080
-2.898798e+01 4.985627e+00 1.691769e+01 4088
-2.212761e+01 -2.264738e+01 1.093715e+01 4104
4.479738e+01 -1.550609e+01 2.292442e+01 4106
3.723216e+01 -2.427354e+01 7.264044e+00 4120
-3.928527e+01 2.486880e+01 5.560418e+00 4134
2.654503e+01 1.875701e+01 1.387356e+01 4144
-4.456053e+01 1.531518e+01 2.452511e+01 4150
-2.324338e+01 -3.529499e+00 1.294380e+01 4152
4.966766e+01 1.452848e+01 2.346818e+01 4161
-6.166051e+00 -2.497367e+01 1.271488e+01 47300
4.201908e+01 -4.624415e+00 5.472563e+00 4170
1.232716e+01 4.613951e+00 2.035612e+01 4172
-3.071479e+00 -2.848852e+00 1.483322e+01 4178
1.931285e+01 1.630998e+01 1.278615e+01 4183
3.534124e+00 1.061097e+01 2.893054e+01 4184
2.678316e+01 -1.475279e+01 3.167214e+00 4194
-1.212432e+01 7.971078e+00 2.602932e+01 4201
2.070463e+01 -2.449075e+01 1.372254e+01 4209
-1.062583e+00 -2.286460e+01 4.753355e+00 4211
1.587341e+01 2.183168e+01 2.622310e+01 4239
-4.629772e+01 -1.862630e+01 2.042538e+01 4244
2.076144e+01 1.734441e+01 4.547221e+00 4245
3.791579e+01 7.880092e+00 2.177436e+00 4248
2.376178e+01 -1.984065e+01 1.612444e+01 4252
-1.067978e+01 -2.265182e+00 2.407408e+01 4256
-5.424383e+00 1.415476e+01 6.833127e+00 4265
3.184725e+00 2.132984e+01 2.398036e+01 4266
2.512040e+01 8.308793e+00 2.422461e+01 4268
4.389563e+01 -1.721346e+01 2.505341e+01 4302
-3.595666e+01 6.109101e-01 2.491628e+01 4308
-2.836950e+01 2.026354e+00 2.794164e+00 4314
3.967081e+01 -7.893554e+00 2.496730e+01 4318
3.784228e+01 7.574534e+00 1.625127e+01 4325
-4.710773e+01 -5.560710e+00 1.702100e+01 4329
-1.152575e+01 -1.503131e+01 2.408559e+01 4332
1.847229e+01 -1.183217e+01 9.356717e+00 4340
-8.495422e+00 3.867584e+00 2.255331e+01 4347
2.825715e+01 9.263730e+00 2.977106e+01 46884
-2.801423e+01 -5.731385e-01 6.607655e-01 4351
1.238234e+01 -5.131024e+00 1.343556e+01 4352
-1.734544e+01 9.581845e+00 2.744631e+01 4353
1.825354e+01 1.658475e+01 2.806218e+00 4359
-3.862250e+01 1.635238e+01 1.392640e+01 4360
-2.066671e+01 8.511733e+00 2.068921e+00 4370
4.525918e+01 -8.828774e+00 3.888154e+00 4378
-2.509155e+01 1.922873e+01 1.075524e+01 4389
1.777718e+01 -2.046122e+01 6.885099e+00 4395
1.165565e+01 1.632702e+01 2.302483e+01 4396
-1.141812e+01 2.141195e+01 1.855792e+01 4402
6.834909e+00 -1.583552e+00 1.918000e+01 4404
4.358751e+01 -9.140749e+00 2.871888e+00 4408
1.327363e+01 9.722753e+00 8.929504e-01 4423
-4.864795e-01 -2.374636e+00 2.719876e+01 4432
-2.551900e+01 1.450204e+01 1.876469e+01 4434
-3.377884e+01 3.123368e+00 1.518989e+01 4435
2.091890e+01 1.212093e+01 1.404989e+01 4448
-2.084180e+01 1.193292e+01 2.784620e+01 4453
-4.964053e+01 -1.533003e+01 2.966835e+01 4455
-4.093726e+01 8.103891e+00 2.491672e+01 4462
-1.082189e+01 1.904505e+01 2.546385e+01 4470
-1.394621e+01 2.284986e+01 5.086489e+00 4480
2.535524e+01 2.141015e+01 1.546145e+01 4481
3.520864e+01 3.747199e+00 2.312348e+01 4485
-9.383162e+00 1.165793e+01 1.310388e+01 4488
1.732836e+01 -7.628579e+00 8.337272e+00 4511
2.194329e+01 6.616962e-01 2.060109e+01 4515
3.206760e+01 2.553189e+00 1.092245e+01 4524
-5.162915e+00 -1.828924e+01 9.633544e+00 4534
6.256034e+00 9.512322e+00 2.420554e+01 4537
-1.276713e+01 1.289505e+01 4.040690e+00 4538
1.029931e+01 5.453786e-01 2.240182e+01 4541
-2.806829e+01 1.284707e+01 1.114904e+01 4544
1.631151e+01 -2.455921e+01 2.242928e+01 4568
-1.824795e+00 1.867625e+01 1.802130e+01 4578
1.875042e+01 1.217172e+01 1.982394e+01 4584
-3.703339e+01 6.463030e+00 1.926843e+01 4602
3.163577e+01 -1.072767e+01 8.546017e+00 4606
4.921063e+01 2.066336e+01 3.891416e+00 4614
4.669202e+01 -9.191656e-01 4.218568e+00 4618
9.539435e+00 -1.823333e+00 8.904550e+00 4620
-3.180084e+01 -5.293695e+00 1.111612e-01 4621
3.994601e+01 -1.177241e+01 7.443492e+00 4623
-3.642183e+00 -2.186561e+01 7.119287e+00 4624
3.893719e+01 2.483869e+00 1.542025e+01 4626
1.270045e+01 -3.028060e+00 1.898665e+01 4635
-3.015567e+01 1.737875e+01 2.721474e+01 4636
-3.928987e+01 1.741881e-01 2.222094e+01 4638
-4.221210e+01 -1.165478e+01 2.032183e+01 4640
4.846068e+01 1.493368e+01 3.052722e+00 4645
-4.093895e+01 -1.498418e+01 2.953926e+01 4646
1.248495e+01 -2.263160e+01 1.646329e+01 4654
2.100202e+01 -5.202694e+00 1.634618e+01 4659
-1.571146e+01 1.786541e+01 2.363580e+01 4660
4.615903e+00 -2.305592e+01 1.307896e+01 4663
-3.163641e+00 2.234830e+00 2.526758e+01 4665
-1.795009e+01 -1.785917e+01 1.675780e+01 4667
1.479472e+01 -2.566638e+00 2.327530e+01 4668
2.864108e+01 -2.492299e+01 2.639905e+01 4673
-4.316930e+01 -2.175604e+01 1.457613e+01 4675
1.146664e+01 2.142850e+01 9.828777e+00 4678
-3.182059e+01 -2.452088e+01 1.286051e+01 4684
8.448396e+00 1.755264e+01 6.064041e+00 4685
-2.321281e+01 -1.686611e+01 5.643674e+00 4689
1.345282e+01 -4.209543e+00 1.112670e+01 4708
-4.560674e+01 3.805933e+00 1.914732e+01 4711