Title = Snapshot #39
Variables=X Y Z PartID
Zone I= 6369, F=POINT
1.077349e+01 -1.162174e+01 2.109874e+01 2
3.124982e+01 -2.484791e+01 2.025927e+01 6
1.346501e+01 1.090605e+01 2.764523e+01 8
1.077363e+01 2.163627e+01 2.214032e+01 12
-4.253411e+00 6.068163e+00 1.011354e+01 14
-3.168766e+01 1.891080e+01 8.627253e-01 17
-2.187832e+01 1.228933e+01 8.162996e+00 18
-3.282948e+01 -2.274210e+01 2.171301e+01 21
-1.578242e+01 -1.471572e+01 2.500282e+01 23
2.042523e+01 -1.142102e+01 1.539938e+01 31
-1.449938e+01 -1.031022e+00 5.885573e+00 41
8.142129e+00 7.375803e+00 1.443924e+01 42
-1.980546e+01 5.225374e+00 2.014678e+01 45
-4.128862e+01 -2.164749e+01 2.624979e+01 74
-2.815151e+01 -1.176109e+01 8.573104e+00 80
4.551063e+00 2.279137e+01 1.346293e+01 82
-4.584345e+01 -1.501345e+01 2.419069e+01 83
-4.762116e+01 1.100823e+01 2.564870e+01 90
2.682717e+01 1.345474e+01 7.469876e+00 91
3.181175e+01 -1.157658e+01 2.222845e+01 95
3.564947e+01 1.253380e+01 2.414222e+01 98
4.676294e+01 1.160395e+01 1.681330e+01 135
8.434225e+00 -7.893184e+00 1.699737e+01 137
3.544391e+01 8.665326e+00 1.290030e+01 150
-1.713975e+01 -5.449116e+00 7.969827e+00 158
3.104851e+01 1.417815e+00 1.511469e+01 171
2.540638e+01 1.365268e+01 5.772029e+00 181
-4.857518e+01 -5.822724e+00 2.016582e+01 199
-7.481533e+00 5.147484e+00 1.065477e+01 214
-1.775262e+01 2.019305e+01 5.033895e+00 217
-3.739570e+01 -1.517991e+01 2.556730e+01 219
2.782603e+00 2.837927e+00 1.131478e+01 233
-4.316465e+01 1.480351e+01 8.635374e+00 234
2.464719e+01 -1.434161e+01 5.267675e+00 257
-4.095848e+01 -1.715448e+01 1.964988e+01 279
1.107277e+01 2.285423e+00 2.080703e+01 295
-4.141629e+01 -1.803295e+01 4.368730e+00 309
3.897916e+01 -1.916522e+01 6.310365e+00 317
1.163136e+01 1.125121e+00 2.688489e+01 319
1.175359e+01 -1.757646e+01 2.579584e+01 321
-3.977781e+01 1.544858e+01 1.984133e+01 325
-4.640764e+01 -1.204718e+01 1.795657e+00 329
3.887793e+01 2.002755e+01 2.974448e+01 337
-3.036674e+01 -1.116641e+01 8.378405e+00 340
-4.872975e+01 2.358634e+01 1.670688e+01 348
4.529518e+01 2.372456e+01 2.907733e+01 352
4.805372e+01 1.374951e+01 1.782330e+01 363
-9.890519e+00 2.317695e+01 3.040944e+00 373
4.678463e+01 9.319845e-01 2.936247e+01 375
3.523810e+01 2.477860e+01 2.023873e+01 379
-2.465428e+01 1.174310e+01 4.480774e+00 396
1.807199e+01 1.045820e+01 1.110105e+01 412
2.432646e+01 -1.737129e+01 2.965804e+01 418
-9.978095e+00 -1.923018e+01 2.299358e+01 425
6.211757e+00 1.453248e+01 5.732427e-01 426
-1.142454e+00 1.550923e-01 9.306886e+00 427
2.248093e+01 1.035936e+01 2.358529e+01 441
2.184921e+01 1.479825e+01 2.766015e+01 443
1.326901e+01 2.141031e+01 2.704899e+01 454
2.704604e+01 9.923874e+00 2.502845e+01 457
5.040014e-01 2.341974e+01 1.971169e+01 467
3.682371e+01 -1.490347e+01 7.726368e+00 477
-4.685442e+01 8.462010e+00 6.041633e+00 483
3.897443e+01 4.041801e+00 4.542910e+00 504
-7.220409e+00 5.564381e+00 1.535591e+01 505
1.732050e+01 1.428157e+01 2.945047e+01 506
6.527558e+00 -1.335724e+01 1.107713e+01 510
-4.624737e+00 1.056408e+01 9.139840e+00 521
-1.504566e+01 -2.170204e+01 9.849378e+00 524
-4.750880e+01 -1.839423e+01 2.630338e+01 525
-3.223137e+01 5.551742e+00 2.716280e+01 536
1.780625e+01 1.860252e+01 2.683116e+00 537
-2.698246e+01 2.496791e+01 1.278188e+01 543
-7.308559e+00 -1.040333e+01 2.714138e+01 555
-8.689439e+00 5.690297e+00 2.891304e+01 559
3.134254e+01 1.236313e+01 2.888180e+01 564
4.129112e+01 1.841815e+01 1.664154e+01 578
-4.985640e+00 2.021548e+01 4.724979e-01 581
-4.519055e+01 2.503891e+00 1.609132e+01 582
-2.704302e+01 1.399189e+01 1.408897e+01 588
4.708085e+01 2.126688e+01 1.598379e+01 591
8.204545e-01 1.542989e+01 2.776488e+01 594
-4.675272e+01 7.262116e+00 4.170260e+00 599
-6.197507e+00 -2.328046e+01 8.422546e-01 611
-4.707713e+01 2.099107e+01 1.164408e+01 618
-3.887190e+01 -7.547354e+00 1.450208e+01 626
4.154964e+01 1.805477e+01 2.890956e+00 629
-5.233764e+00 2.381488e+01 2.692055e+01 634
3.368432e+00 -1.369037e+01 6.479827e+00 636
-1.623266e+01 -8.030847e+00 2.114298e+01 640
2.722510e+01 1.561655e+01 1.846273e+00 650
4.992932e+01 -2.415589e+01 1.036841e+01 657
-9.761051e+00 -3.049437e+00 2.034188e+01 661
-4.019322e+01 -7.646574e+00 9.617956e+00 667
1.408660e+01 -1.211060e+01 2.266098e+01 674
3.063438e+01 -1.247091e+01 2.733270e+00 675
7.562099e+00 -1.509828e+01 1.484774e+01 686
4.306443e+01 2.785062e-01 1.997553e+01 687
2.136014e+01 -4.939973e+00 2.607503e+01 688
-2.072529e+01 -1.229467e+01 2.073669e+01 691
-2.606974e+01 -6.225898e+00 8.525637e+00 697
-2.696240e+01 1.649750e+01 1.365911e+01 701
-1.899775e+01 -9.296487e+00 2.679135e+01 702
-1.118520e+01 1.684691e+01 2.441895e+01 704
4.707293e+01 2.151563e+01 1.096944e+01 723
3.473055e+01 1.579299e+01 1.919994e+01 724
1.762266e+01 1.268495e+01 1.118338e+01 729
-3.669688e+00 -8.706076e+00 2.467634e+01 731
-4.562455e+01 -2.039376e+01 5.860817e+00 739
-2.297359e+01 1.519372e+01 1.653930e+01 743
3.773250e+01 1.098424e+01 2.636690e+01 747
-2.868048e+00 -8.369190e+00 4.149191e+00 749
3.321450e+01 -1.244741e+01 1.065451e+01 752
2.361186e+01 1.051103e+01 2.869477e+01 754
-2.003297e+01 1.243604e+00 1.819963e+01 763
4.378209e+00 -1.134811e+01 3.712732e+00 776
3.748629e+01 -7.733049e+00 1.261357e+01 783
-4.956947e+01 -1.134550e+01 1.554801e+01 787
-1.582573e+01 6.139093e+00 8.075563e+00 791
-1.876200e+00 -2.431236e+01 1.197919e+01 792
-2.129215e+01 1.844705e+01 2.266452e+01 793
4.763640e+00 1.593919e+01 2.688378e+01 797
1.155679e+01 -4.155538e+00 2.795299e+01 814
1.863695e+01 -9.898475e+00 2.665246e+01 823
3.441292e+01 1.055099e+00 1.774632e+01 841
-4.188596e+01 -1.817330e+01 4.480164e+00 848
2.867247e+01 4.854102e+00 2.632331e+01 852
5.673653e+00 -5.996862e+00 5.205886e+00 853
1.486147e+01 7.619441e+00 1.130653e+01 860
1.913585e+01 -5.427544e+00 3.270424e+00 862
1.707052e+01 1.339484e+01 1.040687e-01 865
2.117154e+00 1.274145e+01 1.599901e+01 871
-8.777285e+00 -2.028057e+01 1.904120e+01 879
9.850021e+00 -1.688267e+01 2.337798e+01 890
-3.299970e+01 2.133845e+01 4.404451e+00 891
-2.792350e+01 1.921242e+01 2.875610e+01 892
-2.618679e+01 1.114646e+01 1.993751e+01 893
2.040294e+00 9.779748e-01 1.868015e+01 899
2.065131e+01 -2.410750e+01 1.506192e+01 901
4.179998e+01 5.769176e+00 1.258470e+00 903
-2.142888e+01 1.542155e+01 2.968407e+01 904
-2.449224e+01 8.787666e+00 1.699303e+01 918
-3.396673e+01 -6.189838e+00 2.443565e+01 928
-2.954203e+01 -1.060772e+01 1.403430e+01 961
-3.557966e+00 -7.039634e+00 2.998461e+01 971
-1.449840e+01 -6.094795e+00 2.836229e+01 973
1.782744e+01 7.655642e-01 2.190564e+01 980
-2.615429e+00 -1.396745e+01 2.122465e+00 984
2.901369e+01 1.685768e+01 2.706312e+01 994
-3.140629e+01 -9.224720e+00 6.809713e+00 1000
-4.863262e+01 -3.471794e+00 9.198840e+00 1006
-2.741148e+01 8.914626e+00 2.369372e+01 1010
-1.016667e+01 1.297171e+01 2.734988e+01 1013
-4.753000e+01 1.433342e+01 2.027902e+01 1018
-3.498005e+01 6.265120e+00 2.843637e+01 1019
3.456148e-01 -1.477726e+01 1.778266e+00 1024
-1.923097e+01 -9.174298e+00 2.387253e+01 1033
1.334804e+01 2.162751e+01 9.449193e+00 1054
4.342454e+00 -7.939592e+00 2.848700e+01 1056
-3.338374e+01 2.377336e+01 4.265276e+00 1058
-4.935851e+01 -1.672344e+01 2.020459e+01 1060
-4.456810e+01 3.674485e+00 5.229094e+00 1073
2.488114e+01 2.214787e+01 5.411301e+00 1091
2.690222e+01 1.925459e+01 5.895385e+00 1096
-5.509632e+00 -1.252792e+01 2.487273e+01 1100
5.017126e+00 1.031484e+01 1.006482e+01 1119
2.289601e+01 1.741161e+01 7.406848e+00 1133
-2.487176e+01 1.997785e+01 1.547682e+01 1137
1.986931e+01 1.218547e+01 3.704707e+00 1140
-2.995527e+01 -1.418251e+01 1.606809e+01 1147
1.932516e+01 1.625654e+01 1.409962e+01 1168
-4.328478e+01 -1.800019e+00 1.085910e+01 1174
-1.097743e+01 -2.326435e+01 5.713340e+00 1176
2.880835e+01 1.021153e+01 7.071359e+00 1183
-3.738870e+01 -2.090095e+01 8.828774e+00 1193
-2.467316e+01 -2.174328e+01 1.222836e+01 1196
-4.637630e+01 1.133141e+00 1.828905e+01 1198
4.930464e+01 4.359106e+00 2.292392e+01 1210
-4.421387e+01 1.555943e+01 2.180133e+01 1222
6.375718e+00 1.781789e+01 3.921069e+00 1226
-1.159369e+01 1.342344e+01 1.876199e+01 1230
-4.220754e+01 -1.669149e+01 1.436954e+00 1232
2.876587e+01 1.535931e+00 6.443943e+00 1238
4.765526e+01 -2.908468e+00 1.179691e+01 1242
-1.634075e+00 -1.114012e+01 2.316152e+00 1250
-4.764608e+01 -1.834714e+01 4.221631e+00 1257
5.295243e-01 1.582105e+01 7.704662e-01 1260
3.880252e+01 5.404198e+00 2.453537e+01 1273
-2.617241e+01 -5.510201e+00 1.175119e+00 1278
2.783674e+01 -9.339605e+00 1.892221e+00 1284
-1.222029e+01 5.332159e+00 2.427579e+01 1286
3.312558e+01 9.552451e+00 1.521895e+00 1292
-8.820423e+00 7.940249e+00 2.983853e+01 1296
7.077390e-01 -2.530540e-02 2.857980e+01 1312
1.236998e-01 -5.400847e+00 2.142564e+01 1323
-1.484536e+01 -2.245591e+01 2.354124e+01 1326
-1.792264e+01 -2.088231e+01 2.314212e+01 1332
3.319754e+01 -2.134574e+01 2.403178e+01 1333
-4.358176e+01 1.603423e+00 1.800953e+01 1334
2.228667e+01 -1.850820e+01 1.549399e+01 1337
-1.680353e+01 3.312991e+00 3.173185e+00 1340
-4.172593e+00 -1.538440e+01 2.898983e+01 1342
3.718512e+00 4.665937e+00 2.105483e+01 1346
2.743773e+01 1.788687e+01 1.592492e+01 1350
1.347655e+01 -5.845439e+00 2.799861e+01 1351
3.932456e+01 8.113512e-01 1.836589e+01 1352
-2.154200e+00 -4.660730e+00 1.354119e+01 1356
1.122321e+01 -6.071680e+00 1.507335e+01 1362
-4.140162e+01 5.304209e+00 1.553469e+01 1374
3.577688e+01 7.832072e+00 1.211341e+01 1375
3.550611e+01 1.044351e+01 1.401179e+01 1382
2.000376e+01 -2.142725e+00 2.001098e+01 1385
1.376966e+00 -2.397375e+01 1.572248e+01 1395
-3.144046e+01 -2.484537e+01 2.230927e+01 1403
1.710591e+01 1.238671e+01 1.353794e+01 1415
1.464038e+01 -1.839447e+01 1.926571e+01 1420
-4.949283e+00 1.991410e+01 6.400581e+00 1421
2.187620e+01 -1.814350e+01 1.941951e+01 1423
2.175306e+01 -1.200917e+01 8.938127e+00 1442
-4.703324e+01 2.335659e+01 1.608433e+01 1445
1.098737e+01 5.043379e-01 1.820979e+01 1451
1.140098e+01 8.801549e+00 1.421835e+01 1455
3.725823e+01 -9.135035e+00 1.557500e+00 1460
1.290263e+01 -1.675566e+01 1.912730e+01 1470
-1.825866e+01 -5.213653e+00 4.432676e+00 1471
-2.415925e+01 -8.909925e+00 2.247777e+01 1472
3.889964e+01 -8.980401e+00 1.433300e+01 1474
2.828579e+00 -1.461546e+01 1.526581e+01 1478
-4.043499e+01 1.777789e+01 2.324947e+01 1479
-1.490866e+01 -1.050905e+01 1.147687e+01 1493
2.981487e+01 -1.517412e+01 1.254087e+01 1496
-3.449652e+01 1.325144e+01 1.689725e+01 1502
2.042710e+01 1.832449e+01 1.711118e+01 1514
2.206458e+00 -1.245351e+01 2.883337e+01 1516
3.721104e+01 -2.876699e+00 7.414957e-02 1517
-5.119817e-01 2.148360e+01 2.142035e+01 1518
-1.041953e+01 -1.860076e+01 7.669474e+00 1523
4.934618e+01 -1.770989e+01 2.876880e+01 1531
-4.720801e+01 -9.903448e+00 1.322253e+01 1543
-2.487400e+00 1.738693e+01 2.951982e+00 1546
3.378158e+01 -3.540564e+00 7.998936e+00 1551
-4.420293e+01 1.155687e+01 2.457679e+01 1562
1.146285e+01 1.794158e+01 2.872725e+01 1576
-2.960593e+01 1.111758e+01 2.267184e+01 1580
-3.702408e+01 1.563470e+01 2.166451e+01 1582
-1.679901e+00 -1.194662e+01 2.039043e+01 1589
-2.379348e+01 2.166985e+01 2.985457e+01 1591
-1.438343e+01 2.361973e+01 2.721149e+01 1595
4.355308e-01 9.880719e+00 2.500465e+01 1598
1.715891e+01 2.201968e+01 1.647940e+01 1606
6.661141e+00 -9.616316e+00 2.306212e+01 1615
2.237025e+01 -1.158472e+01 4.343350e+00 1617
3.462103e+01 -5.989607e+00 1.120918e+01 1620
-4.110469e+00 1.153169e+01 6.677995e+00 1623
2.623670e+01 2.226254e+01 2.362304e+01 1642
-1.054089e+00 -3.497827e+00 1.676431e+01 1655
-3.743598e+01 1.655147e+01 3.957249e+00 1667
9.013417e+00 -2.170533e+01 2.031577e+01 1669
9.700186e+00 -7.248538e+00 1.661358e+01 1687
-3.831422e+01 -1.023884e+01 1.204770e+01 1701
2.680867e+01 1.606078e+01 1.935331e+01 1709
-4.212243e+01 7.776899e+00 1.201769e+01 1724
3.108348e+01 1.184068e+01 1.770258e+01 1735
5.833074e+00 7.471859e+00 1.079809e+01 1743
2.178313e+01 4.684479e+00 1.851730e+01 1744
3.413308e+01 8.359275e+00 4.139146e+00 1752
4.871679e+01 1.190368e+01 1.485985e+01 1754
-3.925879e+01 2.306896e+01 2.184883e+01 1756
1.448995e+01 1.018915e+01 2.216547e+01 1757
-4.033630e+01 1.751891e+01 5.042001e-02 1761
2.556497e+01 -1.687609e+00 7.752004e-01 1763
2.575949e+01 -2.198494e+01 2.855391e+01 1772
-4.439596e+01 1.637731e+00 1.929111e+01 1773
-4.483911e+00 -2.009928e+01 1.739816e+01 1777
3.809170e+01 -1.195968e+01 1.247755e+00 1779
1.954708e+01 1.435595e+01 1.106910e+01 1784
-3.396482e+01 -9.254534e+00 2.085153e+01 1794
-2.958272e+01 -2.257481e+01 2.264898e+01 1810
-4.219348e+01 8.577900e+00 1.083018e+01 1811
4.240671e+01 -6.398516e+00 2.744673e+01 1862
-2.420300e+01 4.436482e+00 1.488820e+01 1874
1.426059e+01 1.382879e+01 1.489382e+00 1876
3.665430e+01 -2.382476e+01 1.426195e+01 1877
2.901108e+01 2.181525e+01 1.794856e+01 1888
4.777598e+01 1.843879e+01 2.408808e+00 1895
-1.401829e+01 2.344455e-01 7.545712e+00 1906
2.911899e+01 -1.396807e+00 6.951682e+00 1912
-2.950118e+01 1.874049e+01 2.062324e+01 1920
1.516652e+01 1.832288e+01 1.831469e+01 1931
-4.160560e+01 2.384109e+01 3.916385e+00 1933
4.989898e+01 8.510389e+00 2.578189e+01 1959
3.466131e+00 4.748050e+00 2.121536e+01 1968
-1.858623e+01 3.501112e+00 1.253903e+01 1972
-2.549376e+01 2.334719e+01 8.362546e-01 1973
4.665509e+01 1.826050e+00 1.444428e+01 1984
6.568852e+00 -9.725144e+00 1.892237e+01 1987
4.974062e+01 -2.444917e+01 1.017672e+01 1988
2.256948e+01 5.220136e+00 2.553626e+01 1990
1.883713e+01 1.318070e+01 7.588476e+00 1997
-2.166130e+01 -5.404644e+00 2.303246e+01 2002
1.468776e+01 1.488620e+00 2.884389e+01 2009
3.872951e+01 -2.313750e+00 2.672764e+01 2042
2.030378e+01 1.319359e+01 1.331801e+01 2044
-6.247931e+00 -1.675100e+01 2.669018e+01 2054
9.264813e+00 8.012889e+00 8.690481e+00 2057
1.924258e+01 2.158179e+01 1.987831e+01 2062
-1.285475e+01 9.882674e+00 1.781951e+01 2063
2.555868e+00 9.661721e+00 8.868658e+00 2091
-4.514179e+01 5.758556e+00 8.626680e+00 2092
-2.470873e+01 -1.586274e+01 1.817041e+01 2093
3.070015e+01 7.568127e+00 2.684707e+00 2094
-3.216125e+01 1.956120e+01 2.819685e+01 2109
-8.432967e+00 -6.158241e+00 6.961711e+00 2118
-2.781793e+01 2.483327e+01 4.706330e+00 2126
4.651779e+01 9.882055e+00 4.042343e+00 2128
1.459733e+01 -1.532707e+01 1.876198e+01 2129
-1.217344e-01 2.045211e+01 2.460015e+01 2137
1.211490e+01 2.734820e+00 6.582153e+00 2142
4.557531e+01 9.952617e+00 1.456130e+01 2145
2.452218e+01 2.323742e+01 2.535846e+01 2148
-7.912704e+00 -1.535293e+01 1.340588e+01 2153
3.654210e+01 1.451836e+01 1.388497e+01 2154
-1.400606e+01 1.928127e+01 1.679626e+01 2159
1.270399e+01 -2.027799e-01 1.363066e+01 2166
-4.003444e+01 7.897307e+00 1.009500e+01 2191
1.119368e+01 2.317671e+01 1.716311e+00 2200
-5.880038e+00 -8.747853e+00 1.236262e+01 2210
-3.631691e+01 7.487620e+00 2.561552e+01 2217
1.601037e+01 -4.864461e+00 2.555516e+01 2227
1.080344e+01 -1.321853e+01 2.886388e+01 2233
3.477825e+01 2.483845e+00 4.010258e+00 2234
4.033732e+01 -1.897699e+01 2.510392e+01 2238
-2.774587e+01 9.351843e+00 2.434208e+01 2240
-3.558902e+01 -1.158211e+01 2.402119e+01 2244
-6.761124e+00 1.820341e+01 1.104927e+01 2252
-3.979007e+01 -1.260408e+01 4.027154e+00 2253
4.749282e+01 -2.442701e+01 2.027449e+01 2258
-4.134939e+01 9.243598e+00 1.144222e+01 2269
3.673233e+01 -6.389478e-01 5.862402e+00 2270
2.373428e+01 1.853453e+01 2.573040e+01 2287
1.106438e+01 9.742462e+00 1.618456e+01 2292
-3.168440e+01 1.261820e+01 2.139758e+00 2297
-1.637491e+01 -6.970588e+00 2.868501e+01 2307
2.886738e+01 1.086483e+01 8.873390e+00 2314
3.798396e+01 8.649656e+00 1.720237e+01 2334
1.516925e+01 7.271001e+00 2.940613e+01 2357
-7.972441e+00 2.375895e+01 2.660527e+01 2361
-1.705995e+01 9.735067e+00 2.443640e+01 2372
-1.986922e+01 -1.531689e+01 5.510984e-01 2386
-4.468507e+01 1.988509e+01 1.293045e+01 2391
7.988721e+00 2.289456e+01 2.468721e+01 2399
3.868320e+01 -9.619129e+00 2.556358e+00 2408
9.073540e+00 2.275875e+01 1.160697e+00 2425
-2.834630e+01 -8.516060e+00 2.381498e+01 2442
2.660910e+01 1.727322e+01 2.370010e+01 2451
-9.168657e+00 -1.581767e+01 2.186361e+01 2452
-1.529356e+01 -1.699515e+01 1.848906e+01 2454
4.741922e+01 -1.601721e+01 2.810035e+01 2494
-2.354673e+01 -7.284721e+00 1.692475e+01 2520
4.487550e+01 -2.260682e+01 1.590334e+01 2526
-2.701389e+01 1.049190e+00 1.184404e+00 2528
2.629668e+01 -1.832197e+01 2.499554e+01 2542
-2.601279e+01 8.296474e+00 2.233874e+01 2544
-1.349206e+01 1.184673e+01 1.602010e+01 2556
-1.029337e+01 -1.340027e+00 2.646756e+01 2566
-2.194524e-01 -1.228583e+01 5.435295e+00 2571
-6.643289e+00 9.864408e+00 1.492964e+01 2586
2.615386e+01 -8.160555e+00 2.265225e+01 2587
-3.284284e+01 2.228408e+01 2.987450e+01 2594
4.528628e+01 -2.911122e+00 1.447997e+01 2595
3.889079e-01 1.446544e+01 7.809071e+00 2597
1.129239e+01 1.855236e+01 1.212485e+01 2598
-8.089855e+00 -2.203808e+01 1.371616e+00 2607
-1.279087e+01 -2.235886e+01 2.589923e+01 2633
3.173852e+01 2.116883e+01 2.723240e+01 2637
2.455682e+01 2.271262e+01 1.252126e+01 2640
2.022916e+01 -1.297381e+01 1.090639e+01 2644
-9.642168e+00 -9.410270e+00 4.331035e+00 2646
-4.301376e+01 -1.818122e+01 9.101945e+00 2649
-5.995077e+00 -1.688306e+01 2.716132e+01 2651
-4.149156e+01 -1.382943e+01 1.420131e+01 2653
-3.801243e+01 5.026512e+00 2.322328e+01 2670
-5.555593e-01 1.104891e+01 2.865337e+00 2704
-1.605136e+01 -1.950837e+01 1.496130e+01 2710
4.673461e+01 -4.125425e+00 2.682000e+01 2713
2.518909e+01 -6.452141e-01 1.129450e+00 2717
3.730498e+01 1.710855e+01 2.139768e+01 2731
4.710608e+01 -1.353098e+01 2.767805e+01 2734
2.851412e+01 -1.651964e+01 2.342832e-02 2739
-2.459115e+01 8.806953e+00 1.337218e+01 2752
-4.875371e+01 2.468740e+00 2.859425e+01 2755
-3.871150e+01 6.101207e+00 1.755895e+01 2760
-1.314159e+01 -2.303908e+01 2.972939e+01 2765
4.569136e+01 1.175429e+01 1.381401e+00 2769
-4.929768e+01 -4.396913e+00 2.989054e+01 2770
4.529210e+01 7.871244e+00 2.426565e+01 2771
-1.845230e+01 -2.154525e+01 2.793400e+01 2772
2.643367e+01 -1.849255e+01 3.346929e+00 2782
-2.083933e+01 4.449721e+00 1.201262e+00 2795
2.108609e+01 -9.107429e+00 2.392389e+01 2800
3.143379e+00 -2.292221e+01 8.717663e+00 2814
1.723455e+01 1.773063e+01 2.727749e+01 2816
-3.418195e+01 2.237189e+01 4.247837e+00 2836
-3.218184e+01 -1.743588e+00 1.051286e+01 2848
-4.747110e+01 5.076788e+00 2.689851e+01 2860
-3.889865e+01 1.784620e+00 2.505604e+01 2866
-7.565190e+00 9.141547e+00 4.742625e+00 2868
-4.199844e+01 -5.311564e+00 1.452615e+01 2874
-1.597350e+01 -2.255585e+01 1.610224e+00 2877
2.013823e+01 1.144437e+00 3.890197e+00 2879
4.837740e+01 2.184456e+01 2.362364e+01 2883
5.495976e+00 1.526419e+01 6.949174e+00 2906
-9.074285e+00 1.028750e+01 2.411030e+01 2907
3.630639e+01 1.900091e+01 2.086024e+00 2923
-2.373853e+01 -1.941183e+01 2.499164e+01 2926
-2.542660e+01 -6.727440e-01 1.309443e+01 2940
-2.602648e+01 1.912631e+01 1.904281e+01 2943
4.408788e+01 -1.350608e+01 1.924739e+01 2952
2.769228e+01 -5.092814e+00 2.180816e+00 2956
7.638210e+00 -2.168969e+01 1.127108e+01 2970
-4.722937e+01 -2.304386e+00 4.260151e+00 2971
2.879061e+01 -1.147225e+01 2.817316e+01 2982
1.568316e+01 1.207062e+01 1.554751e+01 2990
-3.143629e+01 1.677548e+01 1.940741e+01 2995
-2.007809e+01 5.726927e+00 9.268796e+00 2998
-1.299706e+01 1.422808e+00 1.277338e+00 3008
9.617364e+00 5.933535e+00 2.971237e+01 3025
-3.727927e+01 6.113811e+00 2.716581e+01 3028
3.305784e+01 -2.481090e+01 1.119779e+00 3044
1.811036e+01 1.767029e+01 2.388581e+01 3059
-4.358136e+01 -1.998261e+01 2.022363e+01 3067
5.285585e+00 -9.972931e+00 2.260838e+01 3081
2.106164e+01 1.177206e+00 1.958594e+01 3083
-2.281579e+01 -1.098003e+01 1.070383e+01 3089
-3.427553e+01 -1.868897e+01 1.642743e+01 3103
8.866755e+00 1.029519e+01 1.032887e+01 3104
-2.614054e+01 1.620294e+01 2.940127e+01 3120
1.853163e+01 1.726789e+01 8.162608e+00 3123
-1.288867e+01 -1.115583e+01 2.890186e+01 3134
-4.739048e+01 -1.026525e+01 1.960498e+01 3140
2.763809e+01 -2.124516e+00 6.888768e-01 3156
4.671142e+01 -8.711515e+00 2.619196e+00 3157
-4.094805e+01 -1.671899e+01 3.168501e+00 3198
1.285667e+01 -7.183472e+00 2.745579e+01 3200
4.376105e+01 2.235935e+01 2.776624e+01 3218
-2.213852e+01 1.588182e+01 2.289481e+00 3223
-1.237039e+01 1.048358e+00 1.340531e+01 3244
3.186990e+01 5.672711e+00 2.037350e+01 3248
2.651704e+01 -1.330757e+01 2.378613e+01 3254
-4.480370e+01 -1.982665e+01 2.576568e+00 3258
4.611977e+01 -3.394741e+00 1.088665e+01 3259
5.953455e+00 2.082491e+01 2.743501e+01 3262
4.946903e+01 -4.085546e+00 1.943659e+01 3263
3.240135e+01 -1.681868e+01 4.184871e+00 3273
-3.887500e+00 -2.063977e+01 2.379337e+01 3285
4.286085e+01 -1.651841e+01 3.699116e+00 3308
-3.872116e+00 -2.491106e+01 1.193292e+01 3309
2.719572e+01 1.582665e+01 5.579563e+00 3317
-3.890545e+01 -7.150364e+00 6.294516e-01 3321
-3.545526e+01 -2.126565e+01 2.897368e+01 3323
2.442262e+01 1.034683e+01 3.490568e+00 3333
3.665110e+01 1.315407e+01 1.418109e+01 3347
2.155505e+01 -9.970380e+00 4.090741e+00 3348
-1.976469e+01 -2.146743e+01 4.343601e+00 3353
-1.465925e+01 -2.064582e+01 2.813509e+01 3357
3.827475e+01 -6.915052e+00 1.015126e+01 3366
-2.215970e+01 1.192269e+01 9.454268e+00 3375
4.301028e+01 -6.333722e+00 1.393052e+00 3398
-3.594877e+01 1.727235e+01 6.333200e+00 3402
-3.977686e+01 1.154738e+01 2.751929e+01 3415
-2.095294e+01 1.698957e+01 2.721943e+00 3431
4.621853e-01 -7.976893e+00 2.118461e+01 3433
3.155769e+01 -1.468494e+01 2.925171e+01 3445
-3.559171e+01 -2.219231e+01 2.200923e+01 3447
3.459136e+01 1.673566e+01 2.167740e+01 3456
-2.186031e+01 -9.182081e+00 2.038868e+01 3460
-4.217797e+01 2.048832e+01 2.463726e+01 3461
4.918189e+01 -2.305157e+01 1.924587e+01 3463
3.628723e+00 8.488003e+00 2.969417e+01 3464
-3.337520e+01 -1.184585e+00 1.629497e+01 3484
2.125983e+01 -2.371867e+01 3.964450e+00 3487
2.686862e+01 -6.182424e+00 2.205649e+01 3488
2.529611e+01 1.558552e+00 8.327747e+00 3491
3.659660e+01 -4.171025e+00 1.756858e+01 3492
-8.357808e+00 3.248031e+00 2.676735e+01 3498
8.590366e+00 -1.210507e+01 1.274701e+01 3503
-3.524480e+01 -2.343553e+01 2.206534e+01 3526
4.064653e+00 1.581712e+01 2.171274e+01 3527
-4.061350e+01 -4.527379e+00 9.726758e+00 3532
3.310971e+01 -6.041127e-01 7.073691e+00 3535
-2.934250e+01 -1.715056e+01 2.196898e+01 3538
-2.406027e+01 -7.175554e+00 1.568471e+01 3562
4.979301e+01 -1.752267e+01 1.551916e+01 3578
2.573806e+01 8.617646e+00 9.963432e+00 3593
-2.829185e+01 -2.407854e+01 5.960159e+00 3604
-2.014261e+01 -1.548601e+01 1.411214e+01 3612
1.719004e+01 -1.094107e+01 2.350344e+01 3614
4.367556e+01 -5.864943e+00 1.416002e+01 3621
-4.551353e+01 -1.599632e+01 2.107158e+01 3626
-3.476269e+01 -1.344323e+00 1.160248e+01 3639
-4.764879e+01 -7.172624e-02 2.376703e+01 3643
-2.889856e+01 9.931653e+00 2.505188e+00 3652
-5.976706e+00 -4.254744e-01 1.124028e+01 3659
-2.101016e+01 -1.505816e+01 1.486606e+01 3663
2.001645e+01 2.043872e+01 1.932355e+01 3669
4.700827e+01 -2.204322e+00 1.477167e+00 3675
4.430435e+01 -5.082686e+00 2.080327e+00 3677
3.283683e-01 -1.725560e+01 4.805162e+00 3679
-2.949806e+01 5.583274e+00 1.776786e+01 3682
-3.620381e+01 -1.249165e+01 2.101647e+01 3685
-3.151277e+01 7.206093e-01 1.888612e+00 3686
4.347960e+01 -1.222647e+01 8.112341e+00 3713
4.908222e+01 -3.105848e+00 2.567226e+01 3717
-1.671916e+01 1.124386e+01 1.967665e+01 3727
-2.029092e+01 -1.166960e+01 2.909530e+01 3729
-2.487881e+01 -2.407422e+01 9.638438e+00 3730
2.377655e+01 -5.825033e-01 2.093045e+01 3733
-3.817731e+00 -7.683149e-02 7.369880e+00 3734
2.766402e+01 1.589728e+01 2.905022e+01 3736
2.946093e+01 4.736226e-01 8.183981e+00 3741
1.565135e+01 1.253219e+01 2.832582e+01 3747
-4.572411e+01 -1.470906e+01 2.885173e+01 3755
-4.129221e+00 -1.525298e+01 1.516452e+01 3758
-1.747736e+01 -9.682491e+00 2.655266e+01 3760
-4.400213e+01 2.513654e+00 2.973759e+01 3761
-2.104836e+00 -1.820460e+01 1.575681e+01 3762
-4.430433e+01 -6.209364e+00 2.411094e+01 3766
4.054722e+01 1.810538e+01 2.492646e+01 3771
-3.076832e+01 -4.193554e+00 2.456986e+01 3780
4.610427e+01 2.922024e+00 8.051023e+00 3788
-7.763820e+00 -1.313619e+01 2.291821e+00 3798
2.630231e+01 -1.735612e+01 2.728334e+01 3800
1.028832e+01 -1.580587e+01 1.465784e+01 3801
3.016022e+01 2.087235e+01 1.821890e+01 3804
-2.171151e+01 9.058780e+00 1.072193e+01 3820
3.964501e+01 -6.696887e+00 2.978102e+00 3836
1.100025e+01 -1.245743e+01 4.038322e+00 3844
-3.772655e+01 1.309426e+01 2.542245e+01 3849
-1.879720e+01 -4.368455e+00 1.659436e+01 3854
3.511839e+01 1.471564e+01 1.930278e+01 3856
3.966872e+01 1.993314e+01 1.887659e+00 3857
6.965751e+00 2.157633e+01 1.669340e+01 3858
3.641876e+01 1.471677e+01 1.490946e+01 3859
4.912877e+01 1.845464e+01 1.793325e+01 3880
3.347093e+01 -5.934712e+00 8.638581e+00 3889
1.681356e+01 -1.964165e+01 1.505490e+00 3910
6.045192e+00 -2.206584e+01 2.288156e+01 3911
4.653606e+01 -2.143459e+01 1.936715e+01 3929
4.836381e+01 -4.701554e+00 2.767683e+01 3930
-2.818286e+01 2.176836e+01 2.303165e+01 3935
3.616957e+01 -3.019055e+00 4.636472e+00 3953
1.710695e+01 5.539040e+00 2.528966e+01 3957
3.222464e+01 1.836529e+01 2.536671e+01 3963
5.285668e+00 7.564027e+00 1.518260e+01 3969
2.768415e+01 1.944590e+01 7.900989e-01 3973
-3.395699e+01 -1.268266e+01 2.405293e+01 3984
-1.366554e+01 -9.118235e+00 1.916945e+01 3989
-3.150534e+01 -4.635832e-01 6.393656e+00 4011
3.948519e+01 1.826004e+01 1.195001e+01 4016
1.013920e+01 -1.442766e+00 2.049809e+01 4017
-1.470669e+01 -7.134518e+00 1.107009e+01 4020
-4.413301e+01 9.320229e+00 2.072445e+01 4029
3.862450e+01 -9.061150e+00 2.921321e+01 4034
-4.191099e+00 8.746149e+00 1.656442e+01 4036
6.720006e-01 -2.070839e+00 5.077162e+00 4037
-1.261811e+01 -7.110750e+00 8.305608e+00 4039
-1.682182e+00 2.711758e+00 2.720536e+01 4046
-4.532096e+01 -9.723332e+00 1.205368e+01 4057
4.927291e+01 -1.725115e+01 2.994911e+01 4061
2.001214e+01 8.377544e+00 2.556962e+01 4066
-3.718118e+01 -7.679663e+00 9.359479e+00 4079
2.764366e+01 1.426348e+01 7.864766e+00 4080
-3.056139e+01 5.306110e+00 1.622982e+01 4088
-2.360996e+01 -2.255697e+01 1.068694e+01 4104
4.377849e+01 -1.560618e+01 2.277992e+01 4106
3.648657e+01 -2.444196e+01 7.166736e+00 4120
2.555630e+01 1.869253e+01 1.348324e+01 4144
-4.585719e+01 1.531395e+01 2.462410e+01 4150
-2.375872e+01 -3.613868e+00 1.376389e+01 4152
4.795849e+01 1.449112e+01 2.365298e+01 4161
4.113186e+01 -4.755171e+00 5.497198e+00 4170
1.057533e+01 4.524817e+00 2.030620e+01 4172
-4.536007e+00 -3.189707e+00 1.494255e+01 4178
1.855706e+01 1.620575e+01 1.267169e+01 4183
1.686181e+00 1.080046e+01 2.892342e+01 4184
2.568355e+01 -1.494718e+01 3.236479e+00 4194
-1.351598e+01 7.769117e+00 2.637940e+01 4201
1.974399e+01 -2.435720e+01 1.403080e+01 4209
-2.406064e+00 -2.307306e+01 4.548203e+00 4211
1.473203e+01 2.152688e+01 2.536506e+01 4239
-4.755057e+01 -1.858368e+01 2.101049e+01 4244
1.998232e+01 1.714204e+01 4.355186e+00 4245
3.707302e+01 7.533050e+00 2.105448e+00 4248
2.301496e+01 -1.953534e+01 1.585884e+01 4252
-1.192243e+01 -2.448674e+00 2.444727e+01 4256
-7.237805e+00 1.422753e+01 6.794402e+00 4265
1.796533e+00 2.133518e+01 2.336662e+01 4266
2.383955e+01 8.420747e+00 2.458630e+01 4268
4.277121e+01 -1.722613e+01 2.460120e+01 4302
-3.703827e+01 5.886026e-01 2.401801e+01 4308
-2.895216e+01 2.154304e+00 2.880995e+00 4314
3.823754e+01 -7.891583e+00 2.484466e+01 4318
3.655374e+01 7.927483e+00 1.642660e+01 4325
-4.862029e+01 -5.096840e+00 1.784758e+01 4329
-1.301710e+01 -1.505651e+01 2.467511e+01 4332
1.736670e+01 -1.194467e+01 9.146980e+00 4340
-9.447933e+00 3.886263e+00 2.257738e+01 4347
2.724041e+01 9.537008e+00 2.987531e+01 46884
-2.846273e+01 -5.227609e-01 5.939933e-01 4351
1.106468e+01 -5.392800e+00 1.326715e+01 4352
-1.893494e+01 9.783793e+00 2.779069e+01 4353
1.735837e+01 1.662542e+01 2.849785e+00 4359
-3.995743e+01 1.582805e+01 1.326854e+01 4360
-2.148815e+01 8.667102e+00 2.633083e+00 4370
4.435630e+01 -8.843594e+00 4.122246e+00 4378
-2.582092e+01 1.947283e+01 1.070057e+01 4389
1.689362e+01 -2.067142e+01 6.788071e+00 4395
1.016130e+01 1.589225e+01 2.331669e+01 4396
-1.250138e+01 2.140561e+01 1.919230e+01 4402
5.339723e+00 -1.625016e+00 1.866544e+01 4404
4.264923e+01 -9.226059e+00 2.877154e+00 4408
4.966537e+01 -1.965485e+01 2.183905e+01 4409
1.280654e+01 9.801020e+00 8.222211e-01 4423
-1.675685e+00 -2.850815e+00 2.719612e+01 4432
-2.623980e+01 1.455165e+01 1.819759e+01 4434
-3.487196e+01 2.831214e+00 1.457788e+01 4435
1.988230e+01 1.188086e+01 1.412676e+01 4448
-2.285983e+01 1.206834e+01 2.816507e+01 4453
-4.200920e+01 8.454859e+00 2.468844e+01 4462
-1.250072e+01 1.920004e+01 2.579740e+01 4470
-1.494529e+01 2.312353e+01 4.887116e+00 4480
2.467356e+01 2.109463e+01 1.519657e+01 4481
3.399499e+01 3.358234e+00 2.326546e+01 4485
-1.030292e+01 1.199785e+01 1.363539e+01 4488
1.615539e+01 -7.925098e+00 8.483753e+00 4511
2.132657e+01 3.163086e-01 2.043561e+01 4515
3.123009e+01 2.592544e+00 1.087122e+01 4524
-5.946332e+00 -1.930198e+01 9.786772e+00 4534
4.128498e+00 9.735386e+00 2.418537e+01 4537
-1.424003e+01 1.274234e+01 4.261388e+00 4538
8.750260e+00 8.973409e-01 2.173027e+01 4541
-2.874425e+01 1.293511e+01 1.073762e+01 4544
-3.175437e+00 1.894851e+01 1.780988e+01 4578
1.766327e+01 1.207854e+01 1.971159e+01 4584
-3.815872e+01 6.375288e+00 1.824499e+01 4602
3.065784e+01 -1.089889e+01 8.715426e+00 4606
4.853974e+01 2.034819e+01 3.643591e+00 4614
4.576786e+01 -8.633936e-01 4.349684e+00 4618
8.533145e+00 -1.990533e+00 8.506285e+00 4620
-3.193320e+01 -5.257494e+00 1.007419e-01 4621
3.921672e+01 -1.210749e+01 7.513165e+00 4623
-4.807245e+00 -2.224058e+01 6.925713e+00 4624
3.813557e+01 2.655010e+00 1.522510e+01 4626
1.169917e+01 -3.115848e+00 1.886852e+01 4635
-3.226044e+01 1.727572e+01 2.727466e+01 4636
-4.034192e+01 3.054905e-01 2.242071e+01 4638
-4.302013e+01 -1.147752e+01 2.015650e+01 4640
4.792987e+01 1.461891e+01 2.905827e+00 4645
-4.240156e+01 -1.493842e+01 2.959852e+01 4646
1.159790e+01 -2.244275e+01 1.630663e+01 4654
2.010094e+01 -5.372004e+00 1.616156e+01 4659
-1.771956e+01 1.785726e+01 2.371611e+01 4660
3.384692e+00 -2.311080e+01 1.263808e+01 4663
-4.254569e+00 2.490957e+00 2.472393e+01 4665
-1.819889e+01 -1.832407e+01 1.664983e+01 4667
1.386436e+01 -2.452864e+00 2.289208e+01 4668
2.709049e+01 -2.481060e+01 2.652966e+01 4673
-4.370322e+01 -2.202100e+01 1.474506e+01 4675
1.053713e+01 2.152601e+01 9.384935e+00 4678