Title = Snapshot #11
Variables=X Y Z PartID
Zone I= 6432, F=POINT
-7.841496e+00 2.433502e+01 8.404049e+00 0
7.051153e+00 -1.034504e+01 2.048168e+01 2
3.233511e+00 1.146197e+01 2.808975e+01 8
4.614711e+00 1.898181e+01 2.102005e+01 12
-1.025766e+01 5.645493e+00 9.401599e+00 14
-3.667013e+01 1.983813e+01 1.023695e+00 17
-2.587911e+01 1.277076e+01 1.005049e+01 18
2.602015e+01 2.491637e+01 1.320065e+01 20
-4.065437e+01 -2.222504e+01 1.810960e+01 21
-2.474261e+01 -1.489729e+01 2.642008e+01 23
1.475424e+01 -1.223742e+01 1.403277e+01 31
-1.937414e+01 -1.795856e+00 4.765189e+00 41
3.832633e+00 7.720258e+00 1.182069e+01 42
-2.718623e+01 3.958498e+00 2.445188e+01 45
1.249360e+00 -7.644565e-01 2.922182e+01 46
4.739924e+01 5.483531e+00 2.510851e+01 68
-4.948732e+01 -2.095176e+01 2.780879e+01 74
-3.134094e+01 -1.382404e+01 6.909292e+00 80
1.157938e+00 2.484296e+01 1.285366e+01 82
2.159692e+01 1.305128e+01 7.263498e+00 91
2.499517e+01 -1.148353e+01 2.245904e+01 95
2.693207e+01 1.458736e+01 2.667663e+01 98
-4.088322e+01 5.792827e+00 2.960870e+01 133
4.026759e+01 1.334635e+01 1.592979e+01 135
3.562785e+00 -8.527452e+00 1.577156e+01 137
2.893911e+01 9.242857e+00 1.364243e+01 150
-2.051902e+01 -7.035513e+00 9.473495e+00 158
-2.388724e+01 -2.271922e+01 1.642725e+01 166
2.561162e+01 3.405514e-01 1.514948e+01 171
1.954711e+01 1.202635e+01 4.781595e+00 181
-1.344543e+01 8.687383e+00 1.242356e+01 214
-2.204809e+01 2.232461e+01 8.488339e+00 217
-4.527764e+01 -1.311319e+01 2.433194e+01 219
-6.291437e-01 2.084482e+00 9.382001e+00 233
1.809055e+01 -1.678648e+01 4.875116e+00 257
-4.699203e+01 -2.298024e+01 2.031793e+01 279
5.043058e+00 2.292357e+00 1.839588e+01 295
-4.727106e+01 -1.831604e+01 2.734209e+00 309
2.539842e+01 -2.470169e+01 7.213408e+00 311
3.388837e+01 -1.934302e+01 7.187237e+00 317
2.956363e+00 -3.091594e-01 2.385745e+01 319
5.969745e+00 -1.921646e+01 2.288974e+01 321
-4.593743e+01 1.483372e+01 1.581474e+01 325
-3.353962e+01 -1.075167e+01 7.380001e+00 340
3.719228e+01 2.370863e+01 2.741478e+01 352
4.027547e+01 1.543230e+01 1.669202e+01 363
4.934971e+01 -1.130375e+01 2.761125e+01 364
-1.756707e+01 2.348780e+01 3.519178e+00 373
3.698850e+01 -1.143636e-01 2.836607e+01 375
-2.976455e+01 1.319394e+01 4.248733e+00 396
1.248539e+01 1.007445e+01 1.247460e+01 412
-1.836508e+01 -1.967715e+01 2.548627e+01 425
2.120911e+00 1.388618e+01 3.939856e-01 426
-1.020829e+01 4.467650e-02 7.835537e+00 427
1.624389e+01 1.059204e+01 2.424468e+01 441
1.328115e+01 1.773471e+01 2.655546e+01 443
3.886943e+00 1.734400e+01 2.396730e+01 454
2.058403e+01 1.063317e+01 2.658136e+01 457
-7.247498e+00 2.206679e+01 1.743413e+01 467
2.969516e+01 -1.454142e+01 8.987555e+00 477
3.544851e+01 3.856773e+00 5.584889e+00 504
-1.194323e+01 6.078832e+00 1.337326e+01 505
5.720067e+00 1.300791e+01 2.983234e+01 506
-2.987891e+00 -1.306685e+01 1.037132e+01 510
-1.156669e+01 1.107083e+01 6.762298e+00 521
-1.976443e+01 -1.926627e+01 7.547879e+00 524
-4.172934e+01 7.371805e+00 2.213811e+01 536
1.373638e+01 1.807909e+01 1.048238e+00 537
-1.601893e+01 -1.268450e+01 2.921750e+01 555
4.268567e+01 1.482951e+01 2.707419e+01 558
-1.702857e+01 4.376697e+00 2.962940e+01 559
2.233030e+01 1.315775e+01 2.968782e+01 564
3.556599e+01 1.881441e+01 1.636414e+01 578
-8.151948e+00 2.060807e+01 4.329874e-01 581
-2.895369e+01 1.331789e+01 1.429314e+01 588
4.015766e+01 2.192234e+01 1.471997e+01 591
-6.536114e+00 1.659669e+01 2.592133e+01 594
-1.122777e+01 -2.437373e+01 6.724427e-01 611
-4.828026e+01 -5.209340e+00 1.421265e+01 626
3.790462e+01 1.645110e+01 2.341027e+00 629
-1.354009e+01 2.191236e+01 2.626020e+01 634
-4.148554e+00 -1.467076e+01 6.232714e+00 636
-2.285706e+01 -7.759589e+00 2.396479e+01 640
9.634259e+00 1.903631e+01 2.789480e+01 642
4.666444e+01 1.419634e+01 1.257124e+01 643
2.262237e+01 1.642500e+01 2.484075e+00 650
4.598794e+01 -2.345433e+01 8.647949e+00 657
-1.605756e+01 1.730766e-01 2.110547e+01 661
-4.655378e+01 -8.760530e+00 7.352676e+00 667
7.108515e+00 -1.200765e+01 2.412231e+01 674
2.568360e+01 -1.181035e+01 3.286048e+00 675
2.946145e+00 -1.600151e+01 1.414915e+01 686
3.681940e+01 2.180881e+00 1.956171e+01 687
1.144474e+01 -6.184549e+00 2.943258e+01 688
-3.043226e+01 -1.586473e+01 2.079739e+01 691
4.597069e+01 -8.844225e+00 2.749120e+01 695
-2.912016e+01 -6.267330e+00 9.136449e+00 697
-2.897183e+01 1.742162e+01 1.403355e+01 701
-2.814944e+01 -1.063477e+01 2.613292e+01 702
-2.149418e+01 1.693220e+01 2.671145e+01 704
4.542275e+01 -3.516272e+00 2.763402e+01 706
-2.606932e+01 -2.329433e+01 1.219050e+01 721
4.174742e+01 2.237959e+01 1.028048e+01 723
2.700716e+01 1.530992e+01 2.086102e+01 724
1.353451e+01 1.263991e+01 1.106432e+01 729
-8.743902e+00 -7.833269e+00 2.483799e+01 731
-3.955969e+01 2.446526e+01 2.958980e+01 733
-2.590910e+01 1.518002e+01 1.670166e+01 743
-4.801041e+01 2.209102e+00 2.889680e+01 745
2.798505e+01 1.034748e+01 2.823443e+01 747
-8.099036e+00 -4.953288e+00 3.646876e+00 749
2.851581e+01 -1.112433e+01 1.009446e+01 752
1.587112e+01 1.149974e+01 2.654166e+01 754
-2.898607e+01 1.612126e+00 2.165283e+01 763
3.763861e+01 2.484064e+01 5.069457e+00 764
-4.777097e-01 -1.282250e+01 3.058258e+00 776
-4.386790e+01 -2.371980e+01 4.261003e+00 782
3.204476e+01 -7.725317e+00 1.223075e+01 783
-2.120234e+01 8.588828e+00 6.653564e+00 791
-3.063346e+01 1.781221e+01 2.583782e+01 793
-2.037405e+00 1.736430e+01 2.449809e+01 797
5.551339e+00 -3.772600e+00 2.418798e+01 814
7.582937e+00 -1.217822e+01 2.761245e+01 823
2.989280e+01 1.881826e+00 1.656726e+01 841
-4.770595e+01 -1.803711e+01 3.330268e+00 848
2.306137e+01 2.526668e+00 2.503937e+01 852
-3.073887e-01 -6.862245e+00 3.541326e+00 853
1.002955e+01 5.429853e+00 1.075844e+01 860
1.343217e+01 -6.390899e+00 3.794421e+00 862
1.626339e+01 1.336710e+01 9.393245e-02 865
-4.658177e+00 1.217619e+01 1.499078e+01 871
-1.596986e+01 -1.890155e+01 1.780855e+01 879
5.621119e+00 -1.550178e+01 2.149819e+01 890
-3.987502e+01 2.177906e+01 4.031789e+00 891
-3.809058e+01 2.001717e+01 2.957506e+01 892
-3.646257e+01 1.125801e+01 1.699560e+01 893
-6.633183e+00 1.749027e+00 1.571036e+01 899
1.487294e+01 -2.158676e+01 1.698552e+01 901
3.783366e+01 5.198311e+00 1.271513e+00 903
-3.065089e+01 8.182463e+00 1.460313e+01 918
-4.088710e+01 -4.533827e+00 2.020314e+01 928
-1.657506e-01 2.298543e+01 2.944708e+01 938
-1.496391e+01 2.300050e+01 2.511770e+01 939
-3.294336e+01 -1.158158e+01 9.842540e+00 961
-1.205166e+01 -7.352857e+00 2.950750e+01 971
1.383912e+01 -2.351005e+01 1.613492e+01 974
1.303670e+01 -3.906981e-01 2.437125e+01 980
-7.422154e+00 -1.346884e+01 2.064463e+00 984
2.062366e+01 1.934098e+01 2.767975e+01 994
-3.532776e+01 -8.523643e+00 5.922044e+00 1000
1.869878e+00 8.469934e+00 2.739113e+01 1005
-3.814298e+01 1.011172e+01 2.041949e+01 1010
-1.951342e+01 1.337556e+01 2.942783e+01 1013
-4.253643e+01 5.832062e+00 2.287072e+01 1019
-4.014535e+00 -1.502561e+01 1.006073e+00 1024
-2.820760e+01 -1.195835e+01 2.437739e+01 1033
-5.112972e-01 2.474241e+01 1.854323e+01 1042
4.185336e+01 7.823323e+00 2.257673e+01 1046
6.722558e+00 2.339250e+01 8.553104e+00 1054
-2.618561e+00 -6.964269e+00 2.484055e+01 1056
-3.974287e+01 2.317634e+01 3.827364e+00 1058
1.815604e+01 2.352456e+01 4.061502e+00 1091
2.120010e+01 2.003201e+01 5.039545e+00 1096
-1.559701e+01 -1.093249e+01 2.678033e+01 1100
4.697291e+01 -2.321074e+01 2.076962e+01 1104
6.094719e-01 1.189953e+01 8.607952e+00 1119
4.948025e+01 6.813894e+00 6.936926e+00 1122
1.810750e+01 1.715252e+01 6.559352e+00 1133
-3.083731e+01 1.969063e+01 1.415708e+01 1137
1.556081e+01 1.126635e+01 2.775274e+00 1140
-3.419617e+01 -1.905705e+01 1.289604e+01 1147
1.406220e+01 1.485376e+01 1.452642e+01 1168
2.190028e+01 9.908682e+00 6.642368e+00 1183
-4.795942e+01 -2.205776e+01 1.159515e+01 1193
-2.708429e+01 -1.947274e+01 1.154394e+01 1196
4.008568e+01 6.109638e+00 2.195941e+01 1210
1.068929e+00 1.857549e+01 3.866894e+00 1226
-1.915891e+01 1.567806e+01 2.233057e+01 1230
-4.624377e+01 -1.681250e+01 1.103219e+00 1232
2.328871e+01 9.660681e-01 5.420013e+00 1238
4.369874e+01 -3.728823e+00 1.204744e+01 1242
-8.721356e+00 -9.509474e+00 2.904863e+00 1250
4.675112e+01 -1.543423e+01 1.276146e+01 1252
-4.891319e+00 6.509193e+00 2.973752e+01 1256
-4.917261e+00 1.651859e+01 1.715790e+00 1260
3.112902e+01 5.531502e+00 2.428800e+01 1273
-3.066328e+01 -5.483956e+00 1.966128e+00 1278
2.348893e+01 -9.884936e+00 1.599511e+00 1284
-2.080995e+01 3.616874e+00 2.612840e+01 1286
2.922029e+01 9.977454e+00 1.055517e+00 1292
4.782637e+01 2.324118e+01 7.708334e+00 1299
-6.039820e+00 -8.046672e-01 2.685086e+01 1312
-6.312894e+00 -5.488568e+00 1.899515e+01 1323
-2.705130e+01 -2.432421e+01 2.436864e+01 1326
-2.927695e+01 -2.312111e+01 2.324683e+01 1332
2.410906e+01 -1.988602e+01 2.519725e+01 1333
-4.860872e+01 -3.132755e+00 1.796928e+01 1334
1.879332e+01 -1.945980e+01 1.396193e+01 1337
-2.200533e+01 6.237720e+00 4.585115e+00 1340
-9.727025e+00 -1.255331e+01 2.913079e+01 1342
-3.813995e+00 5.838846e+00 1.805676e+01 1346
2.062638e+01 1.550478e+01 1.651381e+01 1350
6.957550e+00 -6.076504e+00 2.510522e+01 1351
3.212177e+01 1.057883e+00 1.876239e+01 1352
-9.744507e+00 -4.761983e+00 1.001343e+01 1356
4.681713e+01 2.090515e+01 2.937886e+01 1361
2.717976e+00 -6.812505e+00 1.411666e+01 1362
-4.738735e+01 5.119870e+00 1.463745e+01 1374
3.044033e+01 8.239812e+00 1.340992e+01 1375
2.802876e+01 1.053388e+01 1.506317e+01 1382
1.489072e+01 -3.171960e+00 2.098778e+01 1385
-2.606704e+00 -2.277343e+01 1.499371e+01 1395
4.883548e+01 2.243526e+01 1.066406e+01 1396
1.292293e+01 1.220138e+01 1.370182e+01 1415
9.175111e+00 -1.819610e+01 2.015087e+01 1420
-1.125338e+01 1.978981e+01 6.487652e+00 1421
1.623217e+01 -1.720006e+01 2.099807e+01 1423
4.859565e+01 -1.809427e+01 1.814712e+01 1428
1.606922e+01 -1.137467e+01 8.205596e+00 1442
4.638280e+01 -4.096356e+00 9.589765e-01 1446
5.198156e+00 -8.737378e-01 1.685785e+01 1451
6.746454e+00 6.425265e+00 1.228321e+01 1455
3.376372e+01 -9.194550e+00 1.673619e+00 1460
7.945199e+00 -1.553774e+01 1.777931e+01 1470
-2.463772e+01 -1.468728e+00 6.639666e+00 1471
-3.465047e+01 -8.219832e+00 2.126806e+01 1472
3.514442e+01 -9.625221e+00 1.319399e+01 1474
-6.448123e+00 -1.287453e+01 1.401665e+01 1478
-4.601544e+01 1.671971e+01 1.995119e+01 1479
-1.863644e+01 -1.252521e+01 1.314717e+01 1493
2.365321e+01 -1.667986e+01 1.077971e+01 1496
-5.699124e+00 -7.687330e+00 2.971227e+01 1500
-4.196805e+01 1.245595e+01 1.259272e+01 1502
1.517495e+01 1.739462e+01 1.682505e+01 1514
-4.804564e+00 -1.077140e+01 2.639391e+01 1516
3.662394e+01 -3.167617e+00 7.345983e-02 1517
-7.275332e+00 2.035073e+01 1.726817e+01 1518
-1.642548e+01 -1.956278e+01 7.772296e+00 1523
4.089984e+01 -1.946981e+01 2.703630e+01 1531
-8.499299e+00 1.870291e+01 3.270301e+00 1546
2.938411e+01 -2.638868e+00 8.208857e+00 1551
1.425010e+00 1.768212e+01 2.600599e+01 1576
-3.813458e+01 1.325537e+01 2.007630e+01 1580
-4.362046e+01 1.752984e+01 1.794464e+01 1582
4.303331e+01 -1.613787e+01 1.940372e+01 1584
-8.986980e+00 -1.344951e+01 1.859885e+01 1589
-3.548947e+01 2.096201e+01 2.770623e+01 1591
-2.472995e+01 2.398534e+01 2.970471e+01 1595
-9.231144e+00 1.130636e+01 2.580440e+01 1598
1.108353e+01 2.057830e+01 1.581453e+01 1606
9.261982e-01 -8.373783e+00 2.171412e+01 1615
1.801712e+01 -1.286252e+01 4.414165e+00 1617
2.835545e+01 -6.146372e+00 1.083855e+01 1620
-1.099169e+01 1.098359e+01 3.276616e+00 1623
-3.891966e+01 -2.284546e+01 9.416155e+00 1634
1.828873e+01 2.436157e+01 2.316355e+01 1642
-9.253610e+00 -4.071444e+00 1.369559e+01 1655
-4.414413e+01 1.528900e+01 2.927245e+00 1667
3.623527e+00 -2.051176e+01 1.940900e+01 1669
4.699003e+00 -8.268985e+00 1.548453e+01 1687
-4.606428e+01 2.380987e+01 2.241091e+01 1688
4.841748e+01 -1.099555e+01 1.014153e+01 1694
-4.263971e+01 -1.018717e+01 8.442486e+00 1701
2.026090e+01 1.747574e+01 2.155719e+01 1709
-4.937459e+01 6.670339e+00 8.330043e+00 1724
4.332761e+01 -5.867932e+00 2.617594e+01 1727
2.309988e+01 1.042156e+01 2.025696e+01 1735
7.800036e-01 6.747688e+00 9.063831e+00 1743
1.608702e+01 3.675210e+00 1.932984e+01 1744
2.977070e+01 7.299772e+00 3.991938e+00 1752
4.191776e+01 1.355733e+01 1.384206e+01 1754
-4.401565e+01 2.154299e+01 1.765053e+01 1756
6.112752e+00 7.993721e+00 2.078881e+01 1757
-4.089195e+01 1.773299e+01 6.084815e-02 1761
2.142400e+01 -3.579609e+00 7.656201e-01 1763
-4.770171e+01 -3.474682e+00 2.087088e+01 1773
-1.006658e+01 -2.017784e+01 1.589320e+01 1777
3.342714e+01 -1.255662e+01 9.015070e-01 1779
4.148467e+01 -1.143338e+01 2.598894e+01 1782
1.512095e+01 1.433292e+01 1.058690e+01 1784
-3.929546e+01 -8.785720e+00 1.567574e+01 1794
4.783461e+01 2.425491e+01 1.752486e+01 1798
-3.918475e+01 -2.106523e+01 1.822531e+01 1810
4.485506e+01 -2.484798e+01 1.223143e+01 1819
1.082270e+01 -2.420686e+01 1.698621e+01 1833
3.426220e+01 -6.546940e+00 2.519221e+01 1862
-3.113731e+01 3.267884e+00 1.452941e+01 1874
7.102758e+00 1.468409e+01 2.616244e+00 1876
3.019473e+01 -2.466666e+01 1.380810e+01 1877
2.358050e+01 1.924648e+01 1.741686e+01 1888
4.437604e+01 1.589663e+01 2.295938e+00 1895
-1.909083e+01 6.342796e-01 9.913961e+00 1906
4.248851e+01 -1.241099e+01 2.429408e+01 1908
2.346952e+01 -1.398972e+00 5.610801e+00 1912
4.956982e+01 -2.415436e+01 2.239639e+01 1918
-3.538698e+01 1.546342e+01 1.462293e+01 1920
8.503859e+00 1.846294e+01 1.695281e+01 1931
-9.851135e+00 2.482639e+01 7.219628e+00 1953
4.017470e+01 9.897688e+00 2.616814e+01 1959
-4.233858e+00 6.157924e+00 1.846141e+01 1968
-2.306293e+01 2.803756e+00 1.704524e+01 1972
-2.945570e+01 2.222658e+01 2.899633e+00 1973
4.141672e+01 2.339123e+00 1.457170e+01 1984
1.582385e+00 -1.029443e+01 1.633274e+01 1987
4.567648e+01 -2.358833e+01 8.666854e+00 1988
1.659720e+01 4.799871e+00 2.688507e+01 1990
4.225057e+01 1.358916e+01 2.118788e+01 1996
1.511499e+01 1.344599e+01 7.480317e+00 1997
-3.074874e+01 -4.434564e+00 2.322737e+01 2002
8.952217e+00 3.058044e+00 2.520285e+01 2009
3.614754e+00 2.443476e+01 1.854083e+01 2029
3.018515e+01 -3.765765e+00 2.814608e+01 2042
1.508289e+01 1.239807e+01 1.365591e+01 2044
-1.156776e+01 -1.645720e+01 2.629611e+01 2054
5.345831e+00 8.863486e+00 8.764357e+00 2057
-1.956396e+01 7.976436e+00 2.114281e+01 2063
4.708315e+01 1.923356e+01 8.312284e+00 2080
-3.803667e+00 1.059463e+01 7.964215e+00 2091
-3.078649e+01 -1.001001e+01 1.852191e+01 2093
2.699145e+01 7.691081e+00 2.426993e+00 2094
4.986099e+01 3.491787e+00 2.907164e+00 2108
-4.202617e+01 1.949594e+01 2.801067e+01 2109
-1.486868e+01 -6.891608e+00 4.617275e+00 2118
-3.274386e+01 2.497809e+01 6.444943e+00 2126
4.249153e+01 9.629833e+00 4.239100e+00 2128
1.086967e+01 -1.513004e+01 1.771403e+01 2129
-5.968808e+00 2.028945e+01 2.342173e+01 2137
8.048172e+00 4.080056e+00 4.198799e+00 2142
3.902294e+01 1.056104e+01 1.461512e+01 2145
-1.512567e+01 -1.664029e+01 1.085033e+01 2153
3.046798e+01 1.559123e+01 1.411806e+01 2154
-2.183949e+01 1.822688e+01 2.129298e+01 2159
7.028533e+00 -1.449039e+00 1.146628e+01 2166
3.052195e+00 -1.718722e+01 2.952207e+01 2177
-4.856852e+01 6.952667e+00 6.580635e+00 2191
6.351749e+00 2.404077e+01 2.335264e+00 2200
-1.366162e+01 -8.824290e+00 9.701103e+00 2210
-4.288267e+01 8.162980e+00 2.115931e+01 2217
1.130648e+01 -5.918114e+00 2.392762e+01 2227
4.388923e+01 4.713645e+00 2.831678e+01 2228
8.824222e-01 -1.223831e+01 2.433028e+01 2233
3.097728e+01 2.730681e+00 4.464773e+00 2234
3.437427e+01 -1.944502e+01 2.365676e+01 2238
-3.773513e+01 1.019733e+01 2.171279e+01 2240
-4.060711e+01 -1.218289e+01 1.894724e+01 2244
-1.310979e+01 1.746182e+01 8.791548e+00 2252
-4.784692e+01 -1.143614e+01 3.081071e+00 2253
3.227442e+01 -2.742204e-01 6.735921e+00 2270
1.456937e+01 2.096977e+01 2.678704e+01 2287
6.719313e+00 6.961093e+00 1.358858e+01 2292
-3.745618e+01 1.541441e+01 2.665453e+00 2297
-2.396322e+01 -7.452749e+00 2.912974e+01 2307
2.356266e+01 9.974327e+00 8.550128e+00 2314
2.977604e+01 1.010564e+01 1.918043e+01 2334
4.787279e+01 -1.075017e+01 1.822237e+01 2347
7.680486e+00 6.901983e+00 2.733017e+01 2357
-1.707899e+01 2.428183e+01 2.766444e+01 2361
-2.573023e+01 9.752087e+00 2.650261e+01 2372
-2.568281e+01 -1.284653e+01 2.259046e+00 2386
-3.992077e-01 2.241603e+01 2.309639e+01 2399
3.365167e+01 -8.627003e+00 3.288571e+00 2408
5.246330e+00 2.335038e+01 1.598541e+00 2425
4.204059e+01 -1.969281e+01 1.849913e+01 2426
2.201038e+01 -3.860575e+00 2.941553e+01 2428
-3.740093e+01 -8.935366e+00 1.931190e+01 2442
1.838592e+01 2.114480e+01 2.451779e+01 2451
-1.516019e+01 -1.654541e+01 2.384391e+01 2452
-1.783315e+01 -1.809611e+01 2.173611e+01 2454
-9.087142e+00 2.476195e+01 3.453561e+00 2461
3.988108e+01 -1.759984e+01 2.680875e+01 2494
-3.082022e+01 -5.007502e+00 2.023101e+01 2520
3.778202e+01 -2.498304e+01 1.519619e+01 2526
4.776474e+01 -1.480515e+01 1.225616e+00 2527
-3.024733e+01 1.824628e+00 2.217942e+00 2528
1.898244e+01 -1.883924e+01 2.581923e+01 2542
-3.493540e+01 1.076863e+01 1.973895e+01 2544
-1.934443e+01 1.215033e+01 1.988429e+01 2556
-1.815497e+01 -2.558232e+00 2.748326e+01 2566
-6.944232e+00 -1.173579e+01 4.202735e+00 2571
-4.320042e+01 -2.481673e+01 1.192504e+01 2584
-1.181290e+01 9.082033e+00 1.515186e+01 2586
1.936980e+01 -8.895403e+00 2.352825e+01 2587
-4.130192e+01 2.249838e+01 2.920624e+01 2594
3.980744e+01 -3.892656e+00 1.443155e+01 2595
-5.962433e+00 1.552140e+01 7.135222e+00 2597
5.737386e+00 1.726371e+01 1.215530e+01 2598
-1.366546e+01 -2.352707e+01 2.930419e+00 2607
-2.372902e+01 -2.191711e+01 2.573169e+01 2633
4.783664e+01 1.212729e+01 2.232380e+01 2634
2.241946e+01 2.373343e+01 2.651917e+01 2637
1.906309e+01 2.242291e+01 1.139492e+01 2640
1.448269e+01 -1.321723e+01 1.070361e+01 2644
-1.762005e+01 -8.950159e+00 4.917831e+00 2646
-1.116625e+01 -1.673106e+01 2.666306e+01 2651
-4.957381e+01 -1.444945e+01 1.471479e+01 2653
-4.457388e+01 4.522234e+00 1.716040e+01 2670
-2.586875e+01 2.465513e+01 3.714021e+00 2691
-6.826041e+00 9.795695e+00 3.672251e+00 2704
-1.998154e+01 -1.986798e+01 1.846849e+01 2710
3.926709e+01 -5.150919e+00 2.681675e+01 2713
4.639599e+01 -1.734366e+01 2.153728e+01 2715
2.214652e+01 -5.571013e-01 7.306930e-01 2717
2.918718e+01 1.590887e+01 2.274933e+01 2731
3.864354e+01 -1.370516e+01 2.724828e+01 2734
2.826826e+01 -1.651806e+01 3.023926e-02 2739
-2.806477e+01 6.464251e+00 1.804839e+01 2752
-4.525556e+01 6.602302e+00 1.430024e+01 2760
-2.311167e+01 -2.219904e+01 2.773470e+01 2765
4.121059e+01 1.078300e+01 2.394337e+00 2769
3.641217e+01 8.973740e+00 2.530619e+01 2771
-2.983569e+01 -2.038945e+01 2.684246e+01 2772
1.996992e+01 -1.952363e+01 3.889266e+00 2782
2.012533e-01 -9.262209e+00 2.711053e+01 2787
-2.633166e+01 5.296744e+00 2.434206e+00 2795
1.454312e+01 -1.019466e+01 2.579459e+01 2800
-6.404735e+00 -2.188724e+01 7.122127e+00 2814
5.979289e+00 1.638493e+01 2.889098e+01 2816
4.775834e+01 1.425692e+01 2.203535e+01 2819
-4.192970e+01 2.236896e+01 4.017678e+00 2836
-3.547458e+01 -1.003155e+00 8.530143e+00 2848
-2.804650e+01 -2.465341e+01 1.598391e+01 2852
4.583456e+01 1.849181e+01 2.292818e+01 2862
-4.391379e+01 1.666221e+00 1.846243e+01 2866
-1.580918e+01 1.028678e+01 6.505581e+00 2868
-2.091947e+01 -2.382409e+01 4.358430e+00 2877
1.521013e+01 5.086882e-01 5.261473e+00 2879
4.022356e+01 2.108385e+01 2.163506e+01 2883
-5.961846e-01 1.654618e+01 6.723897e+00 2906
-1.731194e+01 1.097779e+01 2.604682e+01 2907
3.173840e+01 1.720417e+01 1.932090e+00 2923
-3.445578e+01 -2.105897e+01 2.019973e+01 2926
-2.925361e+01 -1.619843e+00 1.620634e+01 2940
-3.340411e+01 1.655234e+01 1.626314e+01 2943
3.524702e+01 -1.421168e+01 1.954097e+01 2952
2.211547e+01 -5.401833e+00 1.724407e+00 2956
1.569630e-01 -2.034378e+01 1.095582e+01 2970
2.084521e+01 -1.204615e+01 2.866574e+01 2982
1.034309e+01 9.711552e+00 1.698169e+01 2990
-3.705866e+01 1.376796e+01 1.305795e+01 2995
-2.300747e+01 5.169362e+00 1.252653e+01 2998
-3.177143e+01 2.486971e+01 7.672986e+00 3005
-2.073638e+01 1.798172e+00 1.020943e+00 3008
-1.332286e-01 5.653518e+00 2.807889e+01 3025
-4.351492e+01 5.562383e+00 2.286299e+01 3028
1.355965e+01 2.023272e+01 2.202442e+01 3059
-4.850777e+01 -1.813929e+01 2.328314e+01 3067
-1.206914e+00 -9.573833e+00 1.979429e+01 3081
1.713950e+01 -1.151416e-02 1.887082e+01 3083
-2.659059e+01 -1.169398e+01 1.272993e+01 3089
4.431934e+01 -1.410242e+01 1.875348e+01 3094
-4.099638e+01 -1.759596e+01 1.432045e+01 3103
4.839777e+00 1.208321e+01 1.000627e+01 3104
1.883274e+00 9.037446e+00 2.998628e+01 3110
1.358102e+01 1.661290e+01 6.738949e+00 3123
-4.492233e+01 -1.788429e+00 2.927455e+01 3153
2.494047e+01 -3.692320e+00 5.290453e-01 3156
4.202556e+01 -7.792721e+00 3.840880e+00 3157
-4.487420e+01 -1.513763e+01 1.527744e+00 3198
6.835332e+00 -7.190796e+00 2.413812e+01 3200
3.648635e+01 2.275943e+01 2.609861e+01 3218
-2.766723e+01 1.728586e+01 1.146061e+00 3223
-1.629034e+01 2.755614e+00 1.285617e+01 3244
2.603521e+01 4.939333e+00 1.890158e+01 3248
2.072229e+01 -1.436720e+01 2.512621e+01 3254
4.530002e+01 4.774847e+00 1.165640e+01 3257
4.278386e+01 -4.347072e+00 1.094837e+01 3259
-6.898159e-01 1.945021e+01 2.494278e+01 3262
4.439607e+01 -5.984751e+00 1.839671e+01 3263
2.785917e+01 -1.689676e+01 3.472235e+00 3273
-7.687704e+00 -2.115134e+01 2.173251e+01 3285
3.756547e+01 -1.574003e+01 3.192475e+00 3308
2.319335e+01 1.517952e+01 5.636219e+00 3317
-4.275145e+01 -7.554696e+00 6.420708e-01 3321
2.010012e+01 8.337287e+00 2.680756e+00 3333
2.858341e+01 1.363951e+01 1.444103e+01 3347
1.800400e+01 -9.571641e+00 2.748390e+00 3348
-2.395093e+01 -2.032115e+01 2.729129e+00 3353
-2.455508e+01 -1.987078e+01 2.775441e+01 3357
3.326787e+01 -7.406933e+00 9.987392e+00 3366
-2.528798e+01 1.186117e+01 1.198910e+01 3375
4.829641e+01 9.104369e+00 2.629576e+01 3383
3.819439e+01 -5.856371e+00 1.848186e+00 3398
-4.380006e+01 1.593334e+01 4.773442e+00 3402
-4.937635e+01 1.091077e+01 2.786469e+01 3415
-2.700080e+01 1.779457e+01 2.089101e+00 3431
-4.624738e+00 -8.265582e+00 2.047750e+01 3433
2.233081e+01 -1.612730e+01 2.982461e+01 3445
-4.186201e+01 -2.427974e+01 1.839400e+01 3447
2.730278e+01 1.897404e+01 2.411646e+01 3456
-3.237826e+01 -7.435331e+00 2.329071e+01 3460
-4.701493e+01 1.990811e+01 2.131050e+01 3461
3.872800e+01 -2.445656e+01 1.929929e+01 3463
-5.611228e+00 7.747218e+00 2.948786e+01 3464
-4.173646e+01 -2.032288e+00 1.245010e+01 3484
1.476485e+01 -2.465692e+01 3.288724e+00 3487
1.936905e+01 -7.675369e+00 2.344333e+01 3488
2.000369e+01 2.316595e+00 6.948036e+00 3491
2.986139e+01 -2.935545e+00 1.823218e+01 3492
-1.656230e+01 1.918912e+00 2.760515e+01 3498
2.940390e+00 -1.205721e+01 1.204830e+01 3503
-2.453438e+00 1.249709e+01 1.956729e+01 3527
-4.560019e+01 -3.408142e+00 7.634230e+00 3532
2.875410e+01 4.599376e-01 7.473200e+00 3535
-4.016416e+01 -1.881518e+01 1.974970e+01 3538
-2.708709e+01 -6.168626e+00 1.824373e+01 3562
4.597133e+01 -1.801394e+01 1.437762e+01 3578
2.073272e+01 8.836007e+00 1.025100e+01 3593
4.681727e+01 3.748813e+00 1.720604e+01 3594
-3.355536e+01 -2.191225e+01 4.091389e+00 3604
-2.357592e+01 -1.636815e+01 1.580202e+01 3612
1.055539e+01 -1.225646e+01 2.592447e+01 3614
3.935148e+01 -6.865919e+00 1.415361e+01 3621
-4.024398e+01 -1.930168e+00 7.982609e+00 3639
-3.485259e+01 1.227530e+01 1.946196e+00 3652
-1.152497e+01 1.620554e+00 1.045056e+01 3659
-2.263122e+01 -1.605872e+01 1.545105e+01 3663
4.917289e+01 2.180269e+01 2.266382e+01 3668
1.438584e+01 2.248273e+01 2.037769e+01 3669
4.243165e+01 -1.474708e+00 2.364500e+00 3675
3.914288e+01 -5.690281e+00 1.145760e+00 3677
-6.913717e+00 -1.737626e+01 3.952188e+00 3679
-3.808002e+01 7.220782e+00 1.325095e+01 3682
-4.234918e+01 -1.301152e+01 1.764073e+01 3685
-3.459423e+01 1.011367e+00 2.742264e+00 3686
3.970369e+01 -1.294920e+01 8.020016e+00 3713
4.022555e+01 -2.757597e+00 2.608876e+01 3717
-2.773641e+01 1.180624e+01 2.281591e+01 3727
-2.868161e+01 -1.291518e+01 2.696610e+01 3729
-3.188666e+01 -2.437758e+01 9.575370e+00 3730
1.987827e+01 3.163888e-02 1.996629e+01 3733
-1.318379e+01 1.728453e+00 5.926200e+00 3734
1.960782e+01 1.852967e+01 2.889386e+01 3736
2.612621e+01 9.373825e-01 7.449149e+00 3741
6.139846e+00 1.076797e+01 2.680621e+01 3747
-1.169576e+01 -1.712977e+01 1.381787e+01 3758
-2.763343e+01 -8.914575e+00 2.706733e+01 3760
-9.811038e+00 -1.829764e+01 1.419833e+01 3762
3.234101e+01 1.833014e+01 2.729011e+01 3771
-3.760463e+01 -4.925858e+00 1.960273e+01 3780
4.103945e+01 2.825188e+00 8.369801e+00 3788
-1.423920e+01 -1.389093e+01 1.542000e+00 3798
1.802379e+01 -1.795464e+01 2.798563e+01 3800
4.933275e+00 -1.401468e+01 1.440362e+01 3801
2.538152e+01 1.859602e+01 1.852195e+01 3804
-2.418545e+01 8.171517e+00 1.336549e+01 3820
5.778908e+00 8.085587e-01 2.810365e+01 3824
3.522862e+01 -6.468037e+00 3.602855e+00 3836
4.716934e+00 -1.277422e+01 3.707471e+00 3844
-4.810867e+01 1.462605e+01 2.555718e+01 3849
-2.469963e+01 -5.327761e+00 2.015605e+01 3854
2.723957e+01 1.424018e+01 2.032956e+01 3856
3.554052e+01 1.861257e+01 1.796543e+00 3857
3.130945e+00 2.026696e+01 1.674711e+01 3858
2.821044e+01 1.415923e+01 1.504646e+01 3859
-2.071076e+01 -2.282355e+01 1.727566e+01 3865
4.265985e+01 1.929063e+01 1.759955e+01 3880
2.797769e+01 -6.987356e+00 8.525992e+00 3889
4.702056e+01 1.759890e+01 2.093238e+01 3894
1.044747e+01 -2.071874e+01 1.716252e+00 3910
8.637131e-02 -2.044184e+01 2.055534e+01 3911
4.474516e+01 1.353796e+01 2.113286e+01 3919
3.794949e+01 -2.295134e+01 1.835594e+01 3929
4.047439e+01 -6.082106e+00 2.778680e+01 3930
-3.578644e+01 2.087685e+01 2.062537e+01 3935
3.173094e+01 -1.714346e+00 5.648800e+00 3953
1.250798e+01 7.230687e+00 2.470741e+01 3957
2.449854e+01 2.093319e+01 2.634506e+01 3963
8.919902e-01 8.544795e+00 1.249834e+01 3969
2.166093e+01 2.063455e+01 9.456613e-01 3973
-3.688380e+01 -1.386576e+01 1.796861e+01 3984
-2.070670e+01 -9.518700e+00 2.240819e+01 3989
-3.443200e+01 1.035895e+00 6.131799e+00 4011
3.275003e+01 1.858557e+01 1.152867e+01 4016
2.158615e+00 -1.642926e-01 1.772392e+01 4017
-1.883883e+01 -6.937525e+00 1.537786e+01 4020
3.267244e+01 -9.986912e+00 2.866092e+01 4034
-1.068360e+01 7.854314e+00 1.346019e+01 4036
-5.987309e+00 7.529064e-01 4.522410e+00 4037
-1.727070e+01 -5.708273e+00 1.029127e+01 4039
-1.093634e+01 4.535912e+00 2.659329e+01 4046
4.099206e+01 -1.885369e+01 2.864941e+01 4061
4.683728e+01 1.249433e+01 2.173549e+01 4064
1.539240e+01 9.245394e+00 2.562003e+01 4066
-4.226897e+01 -9.168263e+00 7.243536e+00 4079
2.265990e+01 1.347952e+01 7.031106e+00 4080
-3.915412e+01 8.219524e+00 1.160399e+01 4088
-2.900964e+01 -2.033171e+01 9.804749e+00 4104
3.769972e+01 -1.682935e+01 2.164052e+01 4106
-3.315431e+01 -2.475486e+01 5.306980e+00 4130
1.967078e+01 1.851221e+01 1.145460e+01 4144
-2.961444e+01 -3.538977e+00 1.872997e+01 4152
3.881814e+01 1.461086e+01 2.469615e+01 4161
4.475777e+01 1.762996e+01 2.009705e+01 4163
-1.814646e+01 -2.299050e+01 1.718733e+01 4165
3.628868e+01 -5.434083e+00 5.748545e+00 4170
9.883631e-01 4.614505e+00 2.002196e+01 4172
-1.147166e+01 -3.073380e+00 1.616862e+01 4178
1.404005e+01 1.581359e+01 1.177414e+01 4183
-8.515000e+00 1.156739e+01 2.872408e+01 4184
1.926910e+01 -1.684076e+01 3.753600e+00 4194
-2.192659e+01 6.566548e+00 2.829645e+01 4201
1.342779e+01 -2.332142e+01 1.541437e+01 4209
-1.015518e+01 -2.402083e+01 3.175275e+00 4211
6.875053e+00 2.129902e+01 2.244872e+01 4239
1.522318e+01 1.589930e+01 3.366205e+00 4245
3.179726e+01 5.583142e+00 2.321836e+00 4248
1.933499e+01 -2.048099e+01 1.421123e+01 4252
-1.948182e+01 -3.325964e+00 2.646829e+01 4256
-1.624698e+01 1.546936e+01 6.763241e+00 4265
-4.896280e+00 2.130074e+01 2.030458e+01 4266
1.697911e+01 8.511052e+00 2.703214e+01 4268
3.632839e+01 -1.765285e+01 2.215130e+01 4302
4.450954e+01 1.628061e+01 1.629462e+01 4304
4.905543e+01 -1.084923e+01 3.223460e+00 4306
-4.557134e+01 2.267597e-01 1.907590e+01 4308
-3.230936e+01 3.009725e+00 3.741235e+00 4314
3.013773e+01 -8.183911e+00 2.463008e+01 4318
2.883604e+01 9.722093e+00 1.793169e+01 4325
4.484223e+01 4.894190e+00 2.512479e+01 4327
-2.304092e+01 -1.542126e+01 2.721755e+01 4332
1.120554e+01 -1.258993e+01 8.002568e+00 4340
-1.445597e+01 4.780386e+00 2.169116e+01 4347
1.996285e+01 1.192903e+01 2.989742e+01 4348
-3.115754e+01 -3.276923e-01 4.369817e-01 4351
3.067946e+00 -6.935210e+00 1.224228e+01 4352
-2.905155e+01 1.097901e+01 2.897006e+01 4353
1.246902e+01 1.744227e+01 2.724467e+00 4359
-2.450319e+01 1.017156e+01 5.111465e+00 4370
3.922486e+01 -9.179644e+00 5.052215e+00 4378
-2.927454e+01 2.000866e+01 1.116217e+01 4389
1.209416e+01 -2.214424e+01 6.652624e+00 4395
1.104293e+00 1.433867e+01 2.490487e+01 4396
-1.940647e+01 2.145375e+01 2.224951e+01 4402
-2.956074e+00 -2.416436e+00 1.670209e+01 4404
3.763231e+01 -9.661112e+00 3.078663e+00 4408
4.085102e+01 -2.150764e+01 2.222281e+01 4409
1.063598e+01 9.835883e+00 6.306418e-01 4423
-8.099402e+00 -5.455205e+00 2.645051e+01 4432
-3.043822e+01 1.679963e+01 1.680177e+01 4434
-4.029133e+01 5.917371e-01 1.187317e+01 4435
1.422905e+01 1.058541e+01 1.461408e+01 4448
-3.435369e+01 1.259529e+01 2.959934e+01 4453
-4.744381e+01 1.040124e+01 2.274959e+01 4462
-2.201172e+01 2.017155e+01 2.799476e+01 4470
-2.121344e+01 2.315779e+01 4.041883e+00 4480
2.086108e+01 1.948080e+01 1.410202e+01 4481
2.725331e+01 1.426825e+00 2.437920e+01 4485
-1.589994e+01 1.337083e+01 1.607492e+01 4488
9.658016e+00 -9.754829e+00 9.555946e+00 4511
4.853064e+01 -5.173099e+00 1.777284e+01 4512
1.766169e+01 -7.843955e-01 1.925069e+01 4515
2.645500e+01 2.664761e+00 1.066925e+01 4524
-1.173451e+01 -2.362972e+01 1.244877e+01 4534
-6.785823e+00 1.001019e+01 2.465529e+01 4537
-2.100011e+01 1.215675e+01 7.214890e+00 4538
7.048975e-01 1.844955e+00 1.882400e+01 4541
-3.177439e+01 1.332064e+01 9.387655e+00 4544
4.617939e+01 -3.658952e+00 2.949819e+01 4553
-1.063205e+01 2.207235e+01 1.497111e+01 4578
1.229363e+01 1.216025e+01 1.924121e+01 4584
4.893179e+01 -6.184798e+00 1.163660e+01 4595
-4.495872e+01 5.941540e+00 1.249868e+01 4602
2.469059e+01 -1.186702e+01 8.655987e+00 4606
4.526879e+01 1.855610e+01 2.378627e+00 4614
4.061623e+01 -1.505668e-01 4.788420e+00 4618
2.954321e+00 -3.310960e+00 6.742187e+00 4620
-3.243890e+01 -5.294527e+00 5.262685e-02 4621
3.523366e+01 -1.400708e+01 7.930139e+00 4623
-1.113596e+01 -2.412527e+01 6.555172e+00 4624