Title = Snapshot #41
Variables=X Y Z PartID
Zone I= 6358, F=POINT
1.112093e+01 -1.174487e+01 2.128019e+01 2
3.185596e+01 -2.478120e+01 2.007379e+01 6
1.415044e+01 1.086487e+01 2.760995e+01 8
1.125920e+01 2.171527e+01 2.225267e+01 12
-3.769857e+00 6.048871e+00 1.022339e+01 14
-3.130289e+01 1.883330e+01 8.514050e-01 17
-2.158744e+01 1.225355e+01 8.090225e+00 18
-3.226455e+01 -2.268167e+01 2.203800e+01 21
-1.513066e+01 -1.473023e+01 2.497153e+01 23
2.082541e+01 -1.132251e+01 1.550405e+01 31
-1.406418e+01 -1.333126e+00 6.158314e+00 41
8.512800e+00 7.416625e+00 1.465311e+01 42
-1.945050e+01 5.256306e+00 1.983940e+01 45
-4.067530e+01 -2.169141e+01 2.615579e+01 74
-2.798924e+01 -1.160790e+01 8.691319e+00 80
4.871617e+00 2.260771e+01 1.356046e+01 82
-4.535290e+01 -1.502277e+01 2.403444e+01 83
-4.700002e+01 1.112010e+01 2.552743e+01 90
2.717722e+01 1.346858e+01 7.506147e+00 91
3.230350e+01 -1.158285e+01 2.222594e+01 95
3.623160e+01 1.243346e+01 2.393095e+01 98
4.720210e+01 1.150386e+01 1.675145e+01 135
8.785873e+00 -7.824968e+00 1.713639e+01 137
3.588451e+01 8.637407e+00 1.284780e+01 150
-1.689421e+01 -5.340781e+00 7.781991e+00 158
3.142794e+01 1.500538e+00 1.511256e+01 171
2.583830e+01 1.376936e+01 5.851990e+00 181
-4.801585e+01 -5.965666e+00 1.989457e+01 199
-7.013601e+00 4.921092e+00 1.063567e+01 214
-1.744488e+01 2.010198e+01 4.769073e+00 217
-3.673029e+01 -1.523449e+01 2.551863e+01 219
3.037092e+00 2.859171e+00 1.148738e+01 233
-4.266673e+01 1.485917e+01 8.771288e+00 234
2.508659e+01 -1.420813e+01 5.320480e+00 257
-4.050791e+01 -1.680119e+01 1.951624e+01 279
1.150634e+01 2.219166e+00 2.095945e+01 295
-4.089020e+01 -1.796273e+01 4.445661e+00 309
3.931493e+01 -1.915583e+01 6.267984e+00 317
1.232017e+01 1.179622e+00 2.707848e+01 319
1.227471e+01 -1.738875e+01 2.602317e+01 321
-3.935989e+01 1.554106e+01 2.006828e+01 325
-4.585789e+01 -1.188716e+01 1.806494e+00 329
3.966834e+01 1.992555e+01 2.973884e+01 337
-3.012795e+01 -1.116111e+01 8.476189e+00 340
-4.819268e+01 2.360419e+01 1.636765e+01 348
4.592305e+01 2.373661e+01 2.918019e+01 352
4.855480e+01 1.361694e+01 1.781560e+01 363
-9.336551e+00 2.311915e+01 2.992456e+00 373
4.749340e+01 1.017381e+00 2.941169e+01 375
3.573970e+01 2.468334e+01 2.020304e+01 379
-2.435480e+01 1.165488e+01 4.471275e+00 396
1.843763e+01 1.046182e+01 1.100574e+01 412
2.503687e+01 -1.729854e+01 2.955113e+01 418
-9.370051e+00 -1.924270e+01 2.275914e+01 425
6.536273e+00 1.461271e+01 5.810592e-01 426
-5.732211e-01 1.682413e-01 9.409668e+00 427
2.294871e+01 1.032459e+01 2.359953e+01 441
2.241912e+01 1.467716e+01 2.779340e+01 443
1.387591e+01 2.174078e+01 2.727342e+01 454
2.750503e+01 9.874569e+00 2.490911e+01 457
1.096877e+00 2.353510e+01 1.991009e+01 467
3.722042e+01 -1.490504e+01 7.650779e+00 477
-4.628968e+01 8.471247e+00 5.826861e+00 483
3.921339e+01 4.117663e+00 4.478333e+00 504
-6.964475e+00 5.540591e+00 1.537580e+01 505
1.816880e+01 1.442735e+01 2.942722e+01 506
7.185062e+00 -1.331739e+01 1.111482e+01 510
-4.179111e+00 1.050982e+01 9.298733e+00 521
-1.463694e+01 -2.180896e+01 1.008952e+01 524
-4.688103e+01 -1.843888e+01 2.615103e+01 525
-3.145213e+01 5.428585e+00 2.750676e+01 536
1.814401e+01 1.852192e+01 2.787878e+00 537
-2.676509e+01 2.474519e+01 1.282769e+01 543
-6.613016e+00 -1.034355e+01 2.692799e+01 555
-8.109867e+00 5.790783e+00 2.888019e+01 559
3.201838e+01 1.230061e+01 2.884966e+01 564
4.172392e+01 1.835211e+01 1.666861e+01 578
-4.689702e+00 2.009964e+01 4.823887e-01 581
-4.481114e+01 2.922248e+00 1.594866e+01 582
-2.686973e+01 1.401202e+01 1.422466e+01 588
4.758090e+01 2.123065e+01 1.607248e+01 591
1.412760e+00 1.540302e+01 2.779145e+01 594
-4.631108e+01 7.362206e+00 4.363927e+00 599
-5.780018e+00 -2.321873e+01 8.377176e-01 611
-4.647136e+01 2.103120e+01 1.130048e+01 618
-3.822340e+01 -7.393779e+00 1.462620e+01 626
4.182690e+01 1.817058e+01 2.941503e+00 629
-4.642663e+00 2.395832e+01 2.700291e+01 634
3.935892e+00 -1.366120e+01 6.448347e+00 636
-1.576421e+01 -8.087133e+00 2.097608e+01 640
2.753907e+01 1.556618e+01 1.821949e+00 650
-9.175151e+00 -3.196875e+00 2.017036e+01 661
-3.987100e+01 -7.638976e+00 9.711040e+00 667
1.452789e+01 -1.214915e+01 2.259931e+01 674
3.098816e+01 -1.253178e+01 2.694239e+00 675
7.952171e+00 -1.507958e+01 1.498712e+01 686
4.350860e+01 1.446656e-01 2.001420e+01 687
2.183911e+01 -4.765695e+00 2.585085e+01 688
-2.010240e+01 -1.219178e+01 2.065358e+01 691
-2.583359e+01 -6.164553e+00 8.482212e+00 697
-2.674037e+01 1.663838e+01 1.386528e+01 701
-1.838018e+01 -9.182019e+00 2.681259e+01 702
-1.048557e+01 1.680078e+01 2.425378e+01 704
4.747028e+01 2.145045e+01 1.104114e+01 723
3.526702e+01 1.583800e+01 1.911534e+01 724
1.791248e+01 1.269471e+01 1.116441e+01 729
-3.335151e+00 -8.875461e+00 2.453999e+01 731
-4.526964e+01 -2.021362e+01 5.501021e+00 739
-2.275573e+01 1.529372e+01 1.669216e+01 743
3.843099e+01 1.103909e+01 2.624029e+01 747
-2.432969e+00 -8.637761e+00 4.126637e+00 749
3.358387e+01 -1.254855e+01 1.060675e+01 752
2.425089e+01 1.041898e+01 2.888539e+01 754
-1.955767e+01 1.347992e+00 1.792874e+01 763
4.784875e+00 -1.125695e+01 3.773091e+00 776
3.787831e+01 -7.738859e+00 1.264854e+01 783
-4.917494e+01 -1.139793e+01 1.525650e+01 787
-1.553633e+01 5.993869e+00 8.199491e+00 791
-1.384506e+00 -2.406484e+01 1.192382e+01 792
-2.065064e+01 1.851373e+01 2.236250e+01 793
5.339729e+00 1.579620e+01 2.703883e+01 797
1.209100e+01 -4.198704e+00 2.820369e+01 814
1.943158e+01 -9.775541e+00 2.655278e+01 823
-4.969527e+01 1.496096e+01 2.005693e+01 839
3.474143e+01 1.005745e+00 1.790062e+01 841
-4.144692e+01 -1.810333e+01 4.440304e+00 848
2.907993e+01 4.959353e+00 2.639563e+01 852
6.097184e+00 -5.906138e+00 5.287722e+00 853
1.518423e+01 7.783730e+00 1.127913e+01 860
1.953983e+01 -5.385415e+00 3.232646e+00 862
1.711366e+01 1.341004e+01 9.160517e-02 865
2.534684e+00 1.281739e+01 1.610463e+01 871
-8.428959e+00 -2.033674e+01 1.918410e+01 879
1.021140e+01 -1.692025e+01 2.362889e+01 890
-3.252224e+01 2.129872e+01 4.427112e+00 891
-2.717700e+01 1.914080e+01 2.861925e+01 892
-2.532316e+01 1.112385e+01 2.000656e+01 893
2.675301e+00 9.079804e-01 1.887054e+01 899
2.102161e+01 -2.426720e+01 1.491979e+01 901
4.209293e+01 5.826293e+00 1.264572e+00 903
-2.065792e+01 1.538730e+01 2.957086e+01 904
-2.397175e+01 8.662355e+00 1.705025e+01 918
3.148054e+01 2.499934e+01 4.058526e+00 920
-3.341001e+01 -6.291670e+00 2.465048e+01 928
-2.914275e+01 -1.041573e+01 1.444794e+01 961
-1.391233e+01 -6.176385e+00 2.818620e+01 973
1.822348e+01 8.095461e-01 2.179339e+01 980
-2.261830e+00 -1.400072e+01 2.157864e+00 984
2.960955e+01 1.667548e+01 2.700826e+01 994
-3.111774e+01 -9.278708e+00 6.905705e+00 1000
-4.801399e+01 -3.570951e+00 9.299479e+00 1006
-2.666377e+01 8.852790e+00 2.384910e+01 1010
-9.525594e+00 1.295150e+01 2.720987e+01 1013
-4.696982e+01 1.426408e+01 1.997948e+01 1018
-3.442942e+01 6.258440e+00 2.893547e+01 1019
7.060629e-01 -1.472179e+01 1.805367e+00 1024
-1.867721e+01 -9.030751e+00 2.380469e+01 1033
1.384451e+01 2.150603e+01 9.532511e+00 1054
4.904341e+00 -7.987838e+00 2.875982e+01 1056
-3.291606e+01 2.383271e+01 4.301186e+00 1058
-4.888456e+01 -1.673813e+01 1.991013e+01 1060
-4.393824e+01 3.787338e+00 5.372170e+00 1073
2.538452e+01 2.209981e+01 5.514170e+00 1091
2.726992e+01 1.918693e+01 5.980716e+00 1096
-4.733309e+00 -1.282028e+01 2.477600e+01 1100
5.318091e+00 1.025274e+01 1.018962e+01 1119
2.324239e+01 1.741307e+01 7.497002e+00 1133
-2.444102e+01 1.998644e+01 1.560631e+01 1137
2.017396e+01 1.224814e+01 3.768746e+00 1140
-2.972439e+01 -1.376479e+01 1.629698e+01 1147
1.971644e+01 1.637063e+01 1.410686e+01 1168
-4.263185e+01 -1.716738e+00 1.109823e+01 1174
-1.053345e+01 -2.309468e+01 5.624466e+00 1176
2.926619e+01 1.020089e+01 7.069328e+00 1183
-3.672418e+01 -2.081255e+01 8.517201e+00 1193
-2.442728e+01 -2.185327e+01 1.229964e+01 1196
-4.599005e+01 1.255836e+00 1.801609e+01 1198
4.996375e+01 4.236891e+00 2.297545e+01 1210
-4.390835e+01 1.570337e+01 2.156174e+01 1222
6.753619e+00 1.780216e+01 3.911189e+00 1226
-1.106493e+01 1.322772e+01 1.843373e+01 1230
-4.187437e+01 -1.669706e+01 1.409984e+00 1232
2.914923e+01 1.590061e+00 6.541306e+00 1238
4.791388e+01 -2.884181e+00 1.177918e+01 1242
-1.138131e+00 -1.118397e+01 2.283275e+00 1250
-4.716566e+01 -1.838384e+01 4.185989e+00 1257
8.974568e-01 1.577062e+01 7.441379e-01 1260
3.937123e+01 5.442544e+00 2.455909e+01 1273
-2.592010e+01 -5.422388e+00 1.206793e+00 1278
-4.992900e+01 -1.962996e+01 9.650789e+00 1280
2.816401e+01 -9.293038e+00 1.902877e+00 1284
-1.166598e+01 5.490702e+00 2.414088e+01 1286
3.343787e+01 9.516116e+00 1.517587e+00 1292
-8.212874e+00 8.038343e+00 2.978143e+01 1296
1.288194e+00 6.468416e-02 2.855153e+01 1312
5.331420e-01 -5.429664e+00 2.158895e+01 1323
-1.413895e+01 -2.236252e+01 2.335722e+01 1326
-1.730154e+01 -2.069539e+01 2.299315e+01 1332
3.383991e+01 -2.147006e+01 2.388241e+01 1333
-4.319164e+01 2.028060e+00 1.802003e+01 1334
2.251509e+01 -1.850931e+01 1.555625e+01 1337
-1.642487e+01 3.209344e+00 3.004482e+00 1340
-3.848769e+00 -1.533973e+01 2.915254e+01 1342
4.311366e+00 4.588908e+00 2.123974e+01 1346
2.784537e+01 1.813569e+01 1.591826e+01 1350
1.401335e+01 -5.918807e+00 2.821881e+01 1351
3.983949e+01 7.956250e-01 1.833820e+01 1352
-1.584523e+00 -4.664353e+00 1.375378e+01 1356
1.180064e+01 -6.040394e+00 1.516589e+01 1362
-4.087380e+01 5.189192e+00 1.555657e+01 1374
3.612618e+01 7.796009e+00 1.202331e+01 1375
3.603941e+01 1.044296e+01 1.394501e+01 1382
2.034084e+01 -2.066834e+00 1.998329e+01 1385
1.659582e+00 -2.395707e+01 1.574089e+01 1395
-3.092244e+01 -2.476933e+01 2.258015e+01 1403
1.739826e+01 1.238707e+01 1.350139e+01 1415
1.503505e+01 -1.837715e+01 1.926810e+01 1420
-4.514145e+00 1.998722e+01 6.396764e+00 1421
2.226326e+01 -1.820256e+01 1.933366e+01 1423
2.219469e+01 -1.208421e+01 8.986578e+00 1442
-4.650525e+01 2.338230e+01 1.567862e+01 1445
1.140368e+01 5.998260e-01 1.829431e+01 1451
1.169060e+01 9.023417e+00 1.437889e+01 1455
3.752176e+01 -9.127615e+00 1.561899e+00 1460
1.325054e+01 -1.686064e+01 1.927816e+01 1470
-1.782727e+01 -5.304561e+00 4.089265e+00 1471
-2.339840e+01 -8.843149e+00 2.234587e+01 1472
3.920385e+01 -9.012033e+00 1.438943e+01 1474
3.416730e+00 -1.476911e+01 1.536791e+01 1478
-4.006304e+01 1.787194e+01 2.345357e+01 1479
-1.455383e+01 -1.036039e+01 1.128939e+01 1493
3.026524e+01 -1.508968e+01 1.265623e+01 1496
-3.394126e+01 1.330454e+01 1.723504e+01 1502
2.078564e+01 1.835425e+01 1.714827e+01 1514
2.735156e+00 -1.259577e+01 2.904675e+01 1516
3.725224e+01 -2.835373e+00 7.097658e-02 1517
-2.828113e-02 2.151837e+01 2.158445e+01 1518
-1.005449e+01 -1.844377e+01 7.721978e+00 1523
4.996676e+01 -1.758764e+01 2.889113e+01 1531
-4.672763e+01 -9.959257e+00 1.296099e+01 1543
-2.074418e+00 1.726674e+01 2.924126e+00 1546
3.408902e+01 -3.594234e+00 7.989619e+00 1551
-4.368959e+01 1.173225e+01 2.444844e+01 1562
1.232520e+01 1.801657e+01 2.870360e+01 1576
-2.901085e+01 1.097037e+01 2.280872e+01 1580
-3.655515e+01 1.553001e+01 2.187206e+01 1582
-1.218063e+00 -1.178296e+01 2.049941e+01 1589
-2.290122e+01 2.166988e+01 2.991806e+01 1591
-1.367912e+01 2.355497e+01 2.701773e+01 1595
1.143059e+00 9.808539e+00 2.498577e+01 1598
1.757241e+01 2.209265e+01 1.657450e+01 1606
7.131865e+00 -9.794796e+00 2.317438e+01 1615
2.268157e+01 -1.154707e+01 4.322267e+00 1617
3.506424e+01 -5.970995e+00 1.122812e+01 1620
-3.564109e+00 1.157316e+01 6.904323e+00 1623
2.678878e+01 2.210988e+01 2.367770e+01 1642
-4.899513e-01 -3.486721e+00 1.706350e+01 1655
-3.689236e+01 1.665387e+01 3.990665e+00 1667
9.417670e+00 -2.176594e+01 2.041560e+01 1669
1.007389e+01 -7.184221e+00 1.669955e+01 1687
-3.804224e+01 -1.042922e+01 1.222530e+01 1701
2.725674e+01 1.599730e+01 1.921607e+01 1709
-4.161927e+01 7.782754e+00 1.221898e+01 1724
3.165087e+01 1.191479e+01 1.752969e+01 1735
6.285615e+00 7.499708e+00 1.095299e+01 1743
2.218018e+01 4.723706e+00 1.845704e+01 1744
3.441876e+01 8.431596e+00 4.162661e+00 1752
4.919998e+01 1.177739e+01 1.494293e+01 1754
-3.895902e+01 2.322399e+01 2.208609e+01 1756
1.511589e+01 1.036815e+01 2.227278e+01 1757
-4.029670e+01 1.750531e+01 6.069214e-02 1761
2.583632e+01 -1.581075e+00 8.293783e-01 1763
2.652476e+01 -2.189868e+01 2.846184e+01 1772
-4.412224e+01 1.933015e+00 1.918039e+01 1773
-4.069594e+00 -2.018791e+01 1.734004e+01 1777
3.839976e+01 -1.193723e+01 1.255532e+00 1779
1.986829e+01 1.435975e+01 1.110070e+01 1784
-3.359801e+01 -9.226296e+00 2.119220e+01 1794
-2.886975e+01 -2.263021e+01 2.297481e+01 1810
-4.176106e+01 8.601614e+00 1.117900e+01 1811
4.302079e+01 -6.403177e+00 2.757864e+01 1862
-2.389691e+01 4.552555e+00 1.474219e+01 1874
1.479371e+01 1.379074e+01 1.494914e+00 1876
3.713748e+01 -2.374552e+01 1.433214e+01 1877
2.938759e+01 2.195535e+01 1.805564e+01 1888
4.805008e+01 1.860695e+01 2.416863e+00 1895
-1.353512e+01 1.587224e-01 7.428824e+00 1906
2.951613e+01 -1.397843e+00 7.054103e+00 1912
-2.904683e+01 1.896237e+01 2.104142e+01 1920
1.565550e+01 1.831549e+01 1.837373e+01 1931
-4.085150e+01 2.383239e+01 3.931611e+00 1933
4.066363e+00 4.653211e+00 2.138507e+01 1968
-1.832887e+01 3.554837e+00 1.221856e+01 1972
-2.520652e+01 2.336997e+01 7.509663e-01 1973
4.703889e+01 1.784768e+00 1.442204e+01 1984
6.938090e+00 -9.650243e+00 1.913154e+01 1987
2.291803e+01 5.175848e+00 2.558374e+01 1990
1.912532e+01 1.316323e+01 7.607661e+00 1997
-2.102006e+01 -5.359947e+00 2.299125e+01 2002
1.517280e+01 1.324351e+00 2.915221e+01 2009
3.933726e+01 -2.170399e+00 2.668905e+01 2042
2.067866e+01 1.326095e+01 1.326477e+01 2044
-5.835883e+00 -1.671951e+01 2.669626e+01 2054
9.575390e+00 7.946191e+00 8.702368e+00 2057
1.961122e+01 2.135847e+01 1.987400e+01 2062
-1.238035e+01 9.977849e+00 1.753474e+01 2063
3.031272e+00 9.557772e+00 8.891228e+00 2091
-4.448942e+01 5.824719e+00 8.676540e+00 2092
-2.438990e+01 -1.620503e+01 1.839463e+01 2093
3.096093e+01 7.569512e+00 2.715538e+00 2094
-3.143962e+01 1.959124e+01 2.821765e+01 2109
-7.937556e+00 -6.111382e+00 7.066073e+00 2118
-2.742535e+01 2.489787e+01 4.618374e+00 2126
4.686386e+01 9.917706e+00 4.000337e+00 2128
1.483618e+01 -1.534731e+01 1.887674e+01 2129
3.290572e-01 2.046632e+01 2.460553e+01 2137
1.236089e+01 2.660869e+00 6.762627e+00 2142
4.606227e+01 9.940438e+00 1.454570e+01 2145
2.507071e+01 2.307492e+01 2.535331e+01 2148
-7.486139e+00 -1.534019e+01 1.356504e+01 2153
3.696396e+01 1.442573e+01 1.384656e+01 2154
-1.355245e+01 1.933984e+01 1.643458e+01 2159
1.312825e+01 -4.435831e-02 1.373086e+01 2166
-3.948497e+01 7.981948e+00 1.043800e+01 2191
1.153230e+01 2.311518e+01 1.688355e+00 2200
-5.427495e+00 -8.700796e+00 1.251537e+01 2210
-3.581422e+01 7.458576e+00 2.593127e+01 2217
1.645972e+01 -4.863607e+00 2.574544e+01 2227
1.152955e+01 -1.329978e+01 2.914628e+01 2233
3.507129e+01 2.476158e+00 3.972575e+00 2234
4.074006e+01 -1.897002e+01 2.519278e+01 2238
-2.699991e+01 9.246511e+00 2.444566e+01 2240
-3.517197e+01 -1.163663e+01 2.437107e+01 2244
-6.364917e+00 1.821095e+01 1.120514e+01 2252
-3.911322e+01 -1.255389e+01 4.154415e+00 2253
4.821955e+01 -2.433003e+01 2.025179e+01 2258
-4.081904e+01 9.306503e+00 1.181073e+01 2269
3.704491e+01 -6.883330e-01 5.794278e+00 2270
2.437152e+01 1.830445e+01 2.565497e+01 2287
1.144289e+01 1.000176e+01 1.634456e+01 2292
-3.128440e+01 1.245821e+01 2.120373e+00 2297
-1.577807e+01 -6.922480e+00 2.864011e+01 2307
2.923588e+01 1.091495e+01 8.902927e+00 2314
3.852276e+01 8.501907e+00 1.710331e+01 2334
1.572441e+01 7.213743e+00 2.953779e+01 2357
-7.328542e+00 2.378619e+01 2.662631e+01 2361
-1.651968e+01 9.705611e+00 2.429369e+01 2372
-1.942719e+01 -1.537351e+01 5.207774e-01 2386
-4.388159e+01 1.976477e+01 1.261120e+01 2391
8.579942e+00 2.298575e+01 2.475592e+01 2399
3.902726e+01 -9.684591e+00 2.498017e+00 2408
9.352228e+00 2.270883e+01 1.152918e+00 2425
-2.761221e+01 -8.487993e+00 2.398130e+01 2442
2.713875e+01 1.701822e+01 2.368438e+01 2451
-8.738451e+00 -1.571552e+01 2.174286e+01 2452
-1.516785e+01 -1.692884e+01 1.826328e+01 2454
4.793848e+01 -1.592342e+01 2.815080e+01 2494
-2.323955e+01 -7.461259e+00 1.672391e+01 2520
4.542753e+01 -2.246831e+01 1.592311e+01 2526
-2.677071e+01 9.821705e-01 1.132864e+00 2528
2.677881e+01 -1.827441e+01 2.493026e+01 2542
-2.535267e+01 8.080787e+00 2.243483e+01 2544
-1.311542e+01 1.183942e+01 1.572843e+01 2556
-9.745712e+00 -1.251090e+00 2.639520e+01 2566
3.391128e-01 -1.230305e+01 5.515999e+00 2571
-6.338320e+00 9.783322e+00 1.492178e+01 2586
2.664592e+01 -8.114258e+00 2.260685e+01 2587
-3.230510e+01 2.228343e+01 2.997996e+01 2594
4.567394e+01 -2.872637e+00 1.444783e+01 2595
8.069387e-01 1.435223e+01 7.856656e+00 2597
1.163995e+01 1.865546e+01 1.218623e+01 2598
-7.716659e+00 -2.191541e+01 1.254354e+00 2607
-1.203995e+01 -2.244107e+01 2.596853e+01 2633
3.243887e+01 2.096765e+01 2.728128e+01 2637
2.494964e+01 2.273138e+01 1.259137e+01 2640
2.064092e+01 -1.300595e+01 1.092834e+01 2644
-9.030324e+00 -9.382908e+00 4.297775e+00 2646
-4.231623e+01 -1.792511e+01 9.085295e+00 2649
-5.603364e+00 -1.684627e+01 2.718012e+01 2651
-4.105483e+01 -1.376696e+01 1.404966e+01 2653
-3.753103e+01 5.009621e+00 2.360154e+01 2670
-1.935555e-01 1.094348e+01 2.788253e+00 2704
-1.577327e+01 -1.945243e+01 1.477061e+01 2710
4.728524e+01 -4.021368e+00 2.678690e+01 2713
2.544301e+01 -6.997307e-01 1.172754e+00 2717
3.786106e+01 1.721545e+01 2.136720e+01 2731
4.771111e+01 -1.352638e+01 2.772046e+01 2734
2.852612e+01 -1.650385e+01 1.710647e-02 2739
-2.458837e+01 8.911845e+00 1.332691e+01 2752
-4.821507e+01 2.459801e+00 2.856229e+01 2755
-3.820978e+01 6.187120e+00 1.782602e+01 2760
-1.244393e+01 -2.306164e+01 2.990836e+01 2765
4.604734e+01 1.185528e+01 1.334077e+00 2769
-4.869323e+01 -4.490505e+00 2.981539e+01 2770
4.591288e+01 7.783701e+00 2.419673e+01 2771
-1.768025e+01 -2.153907e+01 2.793004e+01 2772
2.685694e+01 -1.837400e+01 3.281354e+00 2782
-2.044944e+01 4.378865e+00 1.151698e+00 2795
2.145529e+01 -9.012091e+00 2.383555e+01 2800
3.731931e+00 -2.294991e+01 8.771370e+00 2814
1.796017e+01 1.797433e+01 2.721000e+01 2816
-3.363170e+01 2.235151e+01 4.247073e+00 2836
-3.188158e+01 -1.793486e+00 1.074440e+01 2848
-4.705248e+01 5.262816e+00 2.689239e+01 2860
-3.864271e+01 1.778852e+00 2.532872e+01 2866
-6.995669e+00 8.949377e+00 4.656017e+00 2868
-4.140739e+01 -5.365563e+00 1.469152e+01 2874
-1.555192e+01 -2.236546e+01 1.506015e+00 2877
2.051926e+01 1.161806e+00 3.788111e+00 2879
4.896619e+01 2.189610e+01 2.379159e+01 2883
5.933845e+00 1.517825e+01 7.022548e+00 2906
-8.514892e+00 1.026986e+01 2.399468e+01 2907
3.664038e+01 1.911571e+01 2.107275e+00 2923
-2.287281e+01 -1.929891e+01 2.523339e+01 2926
-2.520666e+01 -6.363999e-01 1.296828e+01 2940
-2.553822e+01 1.908667e+01 1.919064e+01 2943
4.475213e+01 -1.344434e+01 1.920229e+01 2952
2.809510e+01 -5.070385e+00 2.205195e+00 2956
8.208667e+00 -2.173778e+01 1.133572e+01 2970
-4.692491e+01 -2.356600e+00 4.430956e+00 2971
2.938989e+01 -1.143217e+01 2.816925e+01 2982
1.605316e+01 1.223045e+01 1.543912e+01 2990
-3.109828e+01 1.682765e+01 1.992352e+01 2995
-1.984854e+01 5.802449e+00 9.047792e+00 2998
-1.245271e+01 1.328066e+00 1.346483e+00 3008
1.028378e+01 6.034378e+00 2.983117e+01 3025
-3.678130e+01 6.114798e+00 2.748144e+01 3028
3.327461e+01 -2.488526e+01 1.186371e+00 3044
1.847605e+01 1.757078e+01 2.407258e+01 3059
-4.320051e+01 -1.997818e+01 2.014652e+01 3067
5.773183e+00 -1.002154e+01 2.282464e+01 3081
2.134953e+01 1.284580e+00 1.962184e+01 3083
-2.262395e+01 -1.106678e+01 1.054741e+01 3089
-3.380510e+01 -1.877926e+01 1.653904e+01 3103
9.119094e+00 1.021532e+01 1.039033e+01 3104
-2.536841e+01 1.621530e+01 2.934692e+01 3120
1.889674e+01 1.732818e+01 8.249590e+00 3123
-1.212926e+01 -1.111538e+01 2.876404e+01 3134
-4.700564e+01 -1.029382e+01 1.937387e+01 3140
2.782208e+01 -2.029148e+00 6.823576e-01 3156
4.702106e+01 -8.726078e+00 2.517042e+00 3157
-4.051904e+01 -1.675507e+01 3.326421e+00 3198
1.336981e+01 -7.301133e+00 2.769725e+01 3200
4.429422e+01 2.230700e+01 2.787183e+01 3218
-2.172390e+01 1.586642e+01 2.382299e+00 3223
-1.210294e+01 1.009996e+00 1.338776e+01 3244
3.227973e+01 5.739515e+00 2.048296e+01 3248
2.689311e+01 -1.321886e+01 2.366944e+01 3254
-4.428567e+01 -1.988188e+01 2.550789e+00 3258
4.636603e+01 -3.333938e+00 1.090356e+01 3259
6.492054e+00 2.094129e+01 2.756919e+01 3262
4.992026e+01 -4.039710e+00 1.956789e+01 3263
3.277620e+01 -1.682539e+01 4.258676e+00 3273
-3.622857e+00 -2.070640e+01 2.393504e+01 3285
4.323094e+01 -1.656156e+01 3.758472e+00 3308
-3.456947e+00 -2.467081e+01 1.170970e+01 3309
2.747145e+01 1.585903e+01 5.580148e+00 3317
-3.861664e+01 -7.110635e+00 6.341729e-01 3321
-3.469893e+01 -2.117857e+01 2.880228e+01 3323
2.473195e+01 1.048607e+01 3.538665e+00 3333
3.724786e+01 1.311090e+01 1.417874e+01 3347
2.177573e+01 -9.945707e+00 4.194081e+00 3348
-1.946349e+01 -2.169351e+01 4.426512e+00 3353
-1.404929e+01 -2.066672e+01 2.819938e+01 3357
3.862670e+01 -6.878258e+00 1.016681e+01 3366
-2.194133e+01 1.190652e+01 9.355912e+00 3375
4.337114e+01 -6.351339e+00 1.356539e+00 3398
-3.534491e+01 1.730940e+01 6.414172e+00 3402
-3.908407e+01 1.163781e+01 2.751871e+01 3415
-2.052225e+01 1.706422e+01 2.817133e+00 3431
8.171901e-01 -7.959093e+00 2.125977e+01 3433
3.223094e+01 -1.461791e+01 2.922160e+01 3445
-3.520212e+01 -2.199435e+01 2.232148e+01 3447
3.513563e+01 1.659069e+01 2.155760e+01 3456
-2.105806e+01 -9.200407e+00 2.004772e+01 3460
-4.167014e+01 2.049192e+01 2.484497e+01 3461
4.996656e+01 -2.297544e+01 1.923595e+01 3463
4.321970e+00 8.552404e+00 2.967545e+01 3464
-3.281921e+01 -1.155181e+00 1.662991e+01 3484
2.174321e+01 -2.368935e+01 4.020316e+00 3487
2.739494e+01 -6.048109e+00 2.193860e+01 3488
2.565488e+01 1.508141e+00 8.416550e+00 3491
3.705980e+01 -4.285486e+00 1.754605e+01 3492
-7.765642e+00 3.335756e+00 2.670699e+01 3498
9.022024e+00 -1.206834e+01 1.279984e+01 3503
-3.485552e+01 -2.316418e+01 2.221939e+01 3526
4.581444e+00 1.602561e+01 2.188327e+01 3527
-4.028744e+01 -4.474979e+00 9.910966e+00 3532
3.342318e+01 -6.838807e-01 7.051932e+00 3535
-2.892481e+01 -1.702507e+01 2.230916e+01 3538
-2.391667e+01 -7.230418e+00 1.552330e+01 3562
2.610904e+01 8.586091e+00 9.975351e+00 3593
-2.787527e+01 -2.427730e+01 6.054704e+00 3604
-1.984708e+01 -1.558970e+01 1.390358e+01 3612
1.762262e+01 -1.087019e+01 2.342690e+01 3614
4.399805e+01 -5.792531e+00 1.418065e+01 3621
-4.517451e+01 -1.606712e+01 2.085254e+01 3626
-3.432901e+01 -1.265344e+00 1.193427e+01 3639
-4.717316e+01 -2.878428e-01 2.367473e+01 3643
-2.842093e+01 9.835949e+00 2.533909e+00 3652
-5.601546e+00 -5.562311e-01 1.125013e+01 3659
-2.074160e+01 -1.487131e+01 1.463047e+01 3663
2.034584e+01 2.026331e+01 1.936353e+01 3669
4.733767e+01 -2.252423e+00 1.441471e+00 3675
4.470327e+01 -5.053484e+00 2.135908e+00 3677
8.701570e-01 -1.730969e+01 4.877533e+00 3679
-2.881720e+01 5.507657e+00 1.808589e+01 3682
-3.579057e+01 -1.241105e+01 2.133820e+01 3685
-3.128312e+01 7.075352e-01 1.836466e+00 3686
4.374434e+01 -1.216177e+01 8.084112e+00 3713
4.978101e+01 -3.144556e+00 2.565254e+01 3717
-1.626434e+01 1.128226e+01 1.920416e+01 3727
-1.977528e+01 -1.170455e+01 2.920566e+01 3729
-2.435690e+01 -2.405643e+01 9.640855e+00 3730
2.406697e+01 -5.580436e-01 2.101780e+01 3733
-3.182249e+00 -2.631952e-01 7.339423e+00 3734
2.821923e+01 1.571164e+01 2.904007e+01 3736
2.968357e+01 4.481471e-01 8.264434e+00 3741
1.632991e+01 1.261992e+01 2.839615e+01 3747
-4.516846e+01 -1.473950e+01 2.882157e+01 3755
-3.373036e+00 -1.531589e+01 1.530780e+01 3758
-1.675350e+01 -9.763523e+00 2.650786e+01 3760
-4.345478e+01 2.456050e+00 2.980160e+01 3761
-1.684763e+00 -1.816132e+01 1.605386e+01 3762
-4.377733e+01 -6.272787e+00 2.393417e+01 3766
4.114035e+01 1.817787e+01 2.478967e+01 3771
-3.023735e+01 -4.068988e+00 2.487776e+01 3780
4.647466e+01 2.925878e+00 8.027277e+00 3788
-7.343316e+00 -1.310722e+01 2.364042e+00 3798
2.687793e+01 -1.734502e+01 2.723406e+01 3800
1.065571e+01 -1.590463e+01 1.465324e+01 3801
3.043531e+01 2.101640e+01 1.829837e+01 3804
-2.153174e+01 9.097728e+00 1.063748e+01 3820
3.994933e+01 -6.731272e+00 2.951105e+00 3836
1.144385e+01 -1.240386e+01 4.051236e+00 3844
-3.702908e+01 1.293762e+01 2.540937e+01 3849
-1.846585e+01 -4.324494e+00 1.630730e+01 3854
3.565380e+01 1.473951e+01 1.927267e+01 3856
3.997705e+01 1.999443e+01 1.900761e+00 3857
7.299382e+00 2.169979e+01 1.665082e+01 3858
3.700201e+01 1.473141e+01 1.489164e+01 3859
4.958784e+01 1.841775e+01 1.790958e+01 3880
3.384834e+01 -5.874775e+00 8.627037e+00 3889
1.726508e+01 -1.955854e+01 1.488361e+00 3910
6.491753e+00 -2.213846e+01 2.306102e+01 3911
4.717090e+01 -2.132961e+01 1.942728e+01 3929
4.886603e+01 -4.609885e+00 2.769791e+01 3930
-2.757158e+01 2.176632e+01 2.318730e+01 3935
3.647581e+01 -3.090334e+00 4.550527e+00 3953
1.749006e+01 5.459674e+00 2.547915e+01 3957
3.276193e+01 1.815758e+01 2.525397e+01 3963
5.585418e+00 7.519034e+00 1.537730e+01 3969
2.799991e+01 1.943258e+01 7.872699e-01 3973
-3.355008e+01 -1.284021e+01 2.444147e+01 3984
-1.323068e+01 -9.115263e+00 1.892278e+01 3989
-3.125217e+01 -5.696347e-01 6.473872e+00 4011
3.994563e+01 1.825397e+01 1.196713e+01 4016
1.071413e+01 -1.475888e+00 2.071476e+01 4017
-1.441386e+01 -7.175609e+00 1.079735e+01 4020
-4.377375e+01 9.397942e+00 2.066269e+01 4029
3.907837e+01 -9.052873e+00 2.926475e+01 4034
-3.742412e+00 8.844531e+00 1.670554e+01 4036
1.072480e+00 -2.306732e+00 5.129719e+00 4037
-1.223314e+01 -7.132018e+00 8.262918e+00 4039
-1.109378e+00 2.567672e+00 2.728446e+01 4046
-4.476212e+01 -9.845111e+00 1.192152e+01 4057
2.032193e+01 8.329732e+00 2.556737e+01 4066
-3.686272e+01 -7.599302e+00 9.529449e+00 4079
2.798188e+01 1.433331e+01 7.952838e+00 4080
-2.994311e+01 5.161331e+00 1.650272e+01 4088
-2.299607e+01 -2.259331e+01 1.079331e+01 4104
4.418197e+01 -1.556956e+01 2.283201e+01 4106
3.679898e+01 -2.437802e+01 7.205694e+00 4120
-4.031514e+01 2.495949e+01 5.443997e+00 4134
2.596118e+01 1.870284e+01 1.362022e+01 4144
-4.534694e+01 1.531893e+01 2.457882e+01 4150
-2.353189e+01 -3.587236e+00 1.344542e+01 4152
4.864974e+01 1.450068e+01 2.358808e+01 4161
4.148618e+01 -4.708022e+00 5.488529e+00 4170
1.127110e+01 4.565998e+00 2.033058e+01 4172
-3.953336e+00 -3.093621e+00 1.486161e+01 4178
1.885995e+01 1.624470e+01 1.272873e+01 4183
2.418564e+00 1.071724e+01 2.892654e+01 4184
2.610355e+01 -1.485735e+01 3.194611e+00 4194
-1.296481e+01 7.853030e+00 2.623010e+01 4201
2.012688e+01 -2.440639e+01 1.389058e+01 4209
-1.870785e+00 -2.298446e+01 4.630224e+00 4211
1.518586e+01 2.162310e+01 2.569166e+01 4239
-4.704428e+01 -1.859882e+01 2.077066e+01 4244
2.028977e+01 1.721838e+01 4.438650e+00 4245
3.739901e+01 7.685887e+00 2.127219e+00 4248
2.330864e+01 -1.965456e+01 1.596971e+01 4252
-1.143169e+01 -2.363539e+00 2.429523e+01 4256
-6.488396e+00 1.417045e+01 6.805386e+00 4265
2.341152e+00 2.133376e+01 2.361301e+01 4266
2.436452e+01 8.376640e+00 2.443272e+01 4268
4.322162e+01 -1.720529e+01 2.477804e+01 4302
-3.660353e+01 6.033045e-01 2.438711e+01 4308
-2.872497e+01 2.115666e+00 2.839649e+00 4314
3.881458e+01 -7.900002e+00 2.488700e+01 4318
3.709597e+01 7.790705e+00 1.635220e+01 4325
-4.801371e+01 -5.295335e+00 1.750654e+01 4329
-1.239219e+01 -1.505190e+01 2.444377e+01 4332
1.782420e+01 -1.189906e+01 9.239696e+00 4340
-9.075528e+00 3.872661e+00 2.257561e+01 4347
2.764140e+01 9.446355e+00 2.981087e+01 46884
-2.828612e+01 -5.552019e-01 6.226767e-01 4351
1.158802e+01 -5.292489e+00 1.333271e+01 4352
-1.830000e+01 9.695387e+00 2.766652e+01 4353
1.772711e+01 1.659941e+01 2.825361e+00 4359
-3.938588e+01 1.604582e+01 1.354522e+01 4360
-2.114536e+01 8.605211e+00 2.409759e+00 4370
4.471938e+01 -8.843751e+00 4.020739e+00 4378
-2.552584e+01 1.937358e+01 1.070848e+01 4389
1.725153e+01 -2.058995e+01 6.843459e+00 4395
1.076426e+01 1.606025e+01 2.320243e+01 4396
-1.206007e+01 2.139365e+01 1.894880e+01 4402
5.940871e+00 -1.602087e+00 1.886078e+01 4404
4.301818e+01 -9.180497e+00 2.864727e+00 4408
1.298114e+01 9.782445e+00 8.425050e-01 4423
-1.212955e+00 -2.682880e+00 2.721112e+01 4432
-2.594030e+01 1.451878e+01 1.843137e+01 4434
-3.444328e+01 2.950302e+00 1.482013e+01 4435
2.030039e+01 1.196941e+01 1.409898e+01 4448
-2.205818e+01 1.202118e+01 2.804829e+01 4453
-4.156865e+01 8.318685e+00 2.477688e+01 4462
-1.182858e+01 1.912644e+01 2.566819e+01 4470
-1.452984e+01 2.302261e+01 4.983674e+00 4480
2.495504e+01 2.121857e+01 1.529952e+01 4481
3.446883e+01 3.517274e+00 2.321941e+01 4485
-9.932451e+00 1.186649e+01 1.341837e+01 4488
1.662980e+01 -7.818872e+00 8.420390e+00 4511
2.157769e+01 4.511631e-01 2.050642e+01 4515
3.155694e+01 2.570026e+00 1.089430e+01 4524
-5.628254e+00 -1.888980e+01 9.681565e+00 4534
4.979322e+00 9.642502e+00 2.419755e+01 4537
-1.365412e+01 1.280045e+01 4.221866e+00 4538
9.358601e+00 7.607732e-01 2.199956e+01 4541
-2.848196e+01 1.289496e+01 1.089560e+01 4544
1.585225e+01 -2.481719e+01 2.226964e+01 4568
-2.654936e+00 1.882801e+01 1.792245e+01 4578
1.810069e+01 1.211444e+01 1.975088e+01 4584
-3.769238e+01 6.424761e+00 1.866300e+01 4602
3.105165e+01 -1.082993e+01 8.662163e+00 4606
4.879127e+01 2.047460e+01 3.749733e+00 4614
4.612903e+01 -8.832644e-01 4.308447e+00 4618
8.934398e+00 -1.926127e+00 8.659495e+00 4620
-3.188567e+01 -5.273127e+00 1.162022e-01 4621
3.950956e+01 -1.196725e+01 7.494019e+00 4623
-4.342818e+00 -2.208839e+01 7.016430e+00 4624
3.845790e+01 2.578602e+00 1.529171e+01 4626
1.208095e+01 -3.081988e+00 1.892049e+01 4635
-3.141404e+01 1.731777e+01 2.725145e+01 4636
-3.990979e+01 2.475505e-01 2.234220e+01 4638
-4.272173e+01 -1.151484e+01 2.023423e+01 4640
4.813333e+01 1.472817e+01 2.958856e+00 4645
-4.180821e+01 -1.495015e+01 2.957498e+01 4646
1.193775e+01 -2.251102e+01 1.636144e+01 4654
2.045888e+01 -5.306671e+00 1.623696e+01 4659
-1.691791e+01 1.786909e+01 2.369025e+01 4660
3.860648e+00 -2.307584e+01 1.281146e+01 4663
-3.830971e+00 2.388793e+00 2.492989e+01 4665
-1.810327e+01 -1.812891e+01 1.665829e+01 4667
1.424342e+01 -2.500890e+00 2.304087e+01 4668
2.770392e+01 -2.485128e+01 2.647635e+01 4673
-4.350053e+01 -2.193782e+01 1.469507e+01 4675
1.091571e+01 2.148952e+01 9.570109e+00 4678
-3.280043e+01 -2.450027e+01 1.223863e+01 4684
7.893243e+00 1.773361e+01 6.116378e+00 4685