Title = Snapshot #8
Variables=X Y Z PartID
Zone I= 6427, F=POINT
-8.317095e+00 2.422410e+01 8.060730e+00 0
6.741709e+00 -1.018658e+01 2.056987e+01 2
2.090438e+00 1.156980e+01 2.813644e+01 8
4.075441e+00 1.846765e+01 2.091134e+01 12
-1.093367e+01 5.586062e+00 9.421107e+00 14
-3.717759e+01 1.989746e+01 1.033577e+00 17
-2.633889e+01 1.278351e+01 1.034619e+01 18
2.533741e+01 2.483849e+01 1.324515e+01 20
-4.151113e+01 -2.223227e+01 1.774012e+01 21
-2.576099e+01 -1.498054e+01 2.662925e+01 23
1.412534e+01 -1.229454e+01 1.391053e+01 31
-1.997686e+01 -1.757093e+00 5.046493e+00 41
3.430138e+00 7.829375e+00 1.165331e+01 42
-2.813906e+01 3.627649e+00 2.484810e+01 45
2.111996e-01 -8.421007e-01 2.877130e+01 46
4.625843e+01 5.597169e+00 2.527774e+01 68
-3.179922e+01 -1.382906e+01 6.787521e+00 80
7.736697e-01 2.499549e+01 1.285273e+01 82
2.101969e+01 1.298472e+01 7.241356e+00 91
2.423704e+01 -1.145457e+01 2.251915e+01 95
2.600347e+01 1.487109e+01 2.687827e+01 98
-4.169882e+01 5.809476e+00 2.917697e+01 133
3.929718e+01 1.352396e+01 1.578877e+01 135
3.004919e+00 -8.581604e+00 1.570425e+01 137
2.819038e+01 9.319976e+00 1.369532e+01 150
-2.105474e+01 -7.270965e+00 9.937804e+00 158
-2.427058e+01 -2.253561e+01 1.672315e+01 166
2.502154e+01 2.180065e-01 1.513926e+01 171
1.892290e+01 1.186177e+01 4.692800e+00 181
-1.406819e+01 9.089747e+00 1.278010e+01 214
-2.260633e+01 2.262798e+01 8.670171e+00 217
-4.594972e+01 -1.291880e+01 2.393093e+01 219
-9.851516e-01 1.981292e+00 9.241948e+00 233
1.746613e+01 -1.707990e+01 4.957330e+00 257
-4.733229e+01 -2.348624e+01 2.008720e+01 279
4.501521e+00 2.188421e+00 1.816226e+01 295
-4.772963e+01 -1.838352e+01 2.536825e+00 309
2.480673e+01 -2.462716e+01 7.134259e+00 311
3.329715e+01 -1.934331e+01 7.305425e+00 317
2.193352e+00 -4.122232e-01 2.354518e+01 319
5.516428e+00 -1.919986e+01 2.268037e+01 321
-4.665015e+01 1.483755e+01 1.531820e+01 325
-3.386084e+01 -1.066283e+01 7.326026e+00 340
3.639479e+01 2.373204e+01 2.721822e+01 352
3.933665e+01 1.554535e+01 1.659179e+01 363
4.837233e+01 -1.137394e+01 2.765228e+01 364
-1.840385e+01 2.346903e+01 3.544988e+00 373
3.598557e+01 -2.085901e-01 2.823035e+01 375
-3.039399e+01 1.331949e+01 4.283605e+00 396
1.184502e+01 1.001293e+01 1.263590e+01 412
-1.925201e+01 -1.959941e+01 2.577765e+01 425
1.807977e+00 1.386539e+01 3.706719e-01 426
-1.127805e+01 1.831531e-02 7.679336e+00 427
1.555518e+01 1.063018e+01 2.439977e+01 441
1.213210e+01 1.787891e+01 2.647226e+01 443
2.801203e+00 1.681680e+01 2.383205e+01 454
1.987813e+01 1.079390e+01 2.673078e+01 457
-8.036479e+00 2.205708e+01 1.719409e+01 467
2.887640e+01 -1.443211e+01 9.154853e+00 477
3.503366e+01 3.944648e+00 5.759956e+00 504
-1.263465e+01 6.124702e+00 1.303770e+01 505
4.457726e+00 1.291507e+01 2.988268e+01 506
-4.036385e+00 -1.301590e+01 1.024528e+01 510
-1.233307e+01 1.114181e+01 6.386332e+00 521
-2.026059e+01 -1.903608e+01 7.469681e+00 524
-4.260299e+01 7.502117e+00 2.158566e+01 536
1.334714e+01 1.793093e+01 9.568227e-01 537
-1.685786e+01 -1.301488e+01 2.928377e+01 555
4.182463e+01 1.488711e+01 2.692964e+01 558
-1.791954e+01 4.224535e+00 2.972117e+01 559
2.140461e+01 1.323944e+01 2.977352e+01 564
3.497353e+01 1.879875e+01 1.633768e+01 578
-8.505394e+00 2.060320e+01 4.546087e-01 581
-2.922603e+01 1.313180e+01 1.454532e+01 588
3.942906e+01 2.200652e+01 1.458193e+01 591
-7.306632e+00 1.683764e+01 2.563993e+01 594
-1.167970e+01 -2.448144e+01 6.511282e-01 611
-4.922199e+01 -5.193001e+00 1.391770e+01 626
3.750959e+01 1.628828e+01 2.288431e+00 629
-1.446576e+01 2.170770e+01 2.623161e+01 634
-4.908625e+00 -1.476471e+01 6.123927e+00 636
-2.360448e+01 -7.706305e+00 2.426491e+01 640
8.746858e+00 1.848998e+01 2.756629e+01 642
4.606083e+01 1.428396e+01 1.255154e+01 643
2.209560e+01 1.653747e+01 2.607030e+00 650
4.557385e+01 -2.339953e+01 8.461167e+00 657
-1.654110e+01 6.997054e-01 2.107672e+01 661
-4.738482e+01 -9.227597e+00 6.869598e+00 667
6.308071e+00 -1.203318e+01 2.426153e+01 674
2.514474e+01 -1.173861e+01 3.352873e+00 675
2.505976e+00 -1.610129e+01 1.426615e+01 686
3.612049e+01 2.359677e+00 1.952472e+01 687
1.018271e+01 -6.220072e+00 2.965421e+01 688
-3.144759e+01 -1.636606e+01 2.047276e+01 691
4.493924e+01 -8.873538e+00 2.738640e+01 695
-2.942668e+01 -6.142848e+00 9.304690e+00 697
-2.944788e+01 1.792838e+01 1.421759e+01 701
-2.917048e+01 -1.077196e+01 2.594831e+01 702
-2.263639e+01 1.692119e+01 2.696602e+01 704
4.450976e+01 -3.573869e+00 2.763762e+01 706
-2.634426e+01 -2.305198e+01 1.193226e+01 721
4.121623e+01 2.248721e+01 1.020940e+01 723
2.613186e+01 1.528016e+01 2.109658e+01 724
1.307894e+01 1.262466e+01 1.103942e+01 729
-9.333708e+00 -7.880250e+00 2.484593e+01 731
-4.045141e+01 2.440964e+01 2.967309e+01 733
-2.637580e+01 1.532844e+01 1.721266e+01 743
-4.864249e+01 2.379555e+00 2.837734e+01 745
2.697255e+01 1.025205e+01 2.844025e+01 747
-8.559509e+00 -4.597252e+00 3.537887e+00 749
2.805005e+01 -1.099408e+01 9.983207e+00 752
1.514215e+01 1.164205e+01 2.636756e+01 754
-3.008263e+01 1.762695e+00 2.187835e+01 763
3.721079e+01 2.474142e+01 4.917651e+00 764
-9.478283e-01 -1.296618e+01 3.014976e+00 776
-4.477171e+01 -2.370892e+01 4.140021e+00 782
3.143899e+01 -7.734102e+00 1.217660e+01 783
-2.188108e+01 8.881628e+00 6.578938e+00 791
-3.164740e+01 1.771851e+01 2.601303e+01 793
-2.695825e+00 1.745972e+01 2.428847e+01 797
4.989773e+00 -3.815522e+00 2.386029e+01 814
6.514321e+00 -1.253502e+01 2.761362e+01 823
2.935682e+01 1.979842e+00 1.648367e+01 841
-4.836502e+01 -1.802605e+01 3.142406e+00 848
2.246119e+01 2.165109e+00 2.485692e+01 852
-8.604519e-01 -6.782344e+00 3.393163e+00 853
9.488141e+00 5.249283e+00 1.070499e+01 860
1.286255e+01 -6.577145e+00 3.801449e+00 862
1.617305e+01 1.336240e+01 9.484975e-02 865
-5.377022e+00 1.218118e+01 1.492868e+01 871
-1.694971e+01 -1.902191e+01 1.809482e+01 879
5.112801e+00 -1.534661e+01 2.155391e+01 890
-4.062690e+01 2.180952e+01 3.990243e+00 891
-3.913389e+01 2.007681e+01 2.955947e+01 892
-3.732867e+01 1.125213e+01 1.650324e+01 893
-7.468242e+00 1.749988e+00 1.529837e+01 899
1.422832e+01 -2.127559e+01 1.720459e+01 901
3.740577e+01 5.177982e+00 1.300552e+00 903
-3.129824e+01 7.860034e+00 1.442997e+01 918
-4.159033e+01 -4.317772e+00 1.961553e+01 928
-1.052297e+00 2.273577e+01 2.896417e+01 938
-1.586728e+01 2.281658e+01 2.514737e+01 939
-3.321603e+01 -1.151717e+01 9.627446e+00 961
-1.292149e+01 -7.375278e+00 2.943961e+01 971
1.324621e+01 -2.321891e+01 1.627661e+01 974
1.237922e+01 -4.162524e-01 2.476497e+01 980
-7.901828e+00 -1.342353e+01 2.054116e+00 984
1.971306e+01 1.956722e+01 2.771642e+01 994
-3.571733e+01 -8.440686e+00 5.878126e+00 1000
9.288614e-01 8.184486e+00 2.707208e+01 1005
-3.923811e+01 1.025668e+01 2.000732e+01 1010
-2.054833e+01 1.342097e+01 2.965449e+01 1013
-4.332750e+01 5.751417e+00 2.235720e+01 1019
-4.445166e+00 -1.500272e+01 9.889544e-01 1024
-2.940626e+01 -1.233248e+01 2.420715e+01 1033
-1.184059e+00 2.471281e+01 1.820629e+01 1042
4.090339e+01 7.920531e+00 2.238570e+01 1046
6.040038e+00 2.359453e+01 8.462914e+00 1054
-3.261981e+00 -6.867364e+00 2.444900e+01 1056
-4.039996e+01 2.313163e+01 3.812841e+00 1058
1.743108e+01 2.369310e+01 3.947856e+00 1091
2.057985e+01 2.009865e+01 4.968834e+00 1096
-1.663769e+01 -1.099482e+01 2.708494e+01 1100
4.593714e+01 -2.309452e+01 2.064376e+01 1104
4.947331e-02 1.211620e+01 8.453831e+00 1119
4.885370e+01 6.936491e+00 7.032363e+00 1122
1.754961e+01 1.710516e+01 6.490292e+00 1133
-3.139626e+01 1.971672e+01 1.408675e+01 1137
1.510326e+01 1.110094e+01 2.674942e+00 1140
-3.475156e+01 -1.947614e+01 1.260657e+01 1147
1.351304e+01 1.472468e+01 1.461521e+01 1168
2.115366e+01 9.807701e+00 6.562708e+00 1183
-4.902143e+01 -2.201191e+01 1.184134e+01 1193
-2.720155e+01 -1.915423e+01 1.154990e+01 1196
3.913433e+01 6.242524e+00 2.184052e+01 1210
5.154242e-01 1.872790e+01 3.847164e+00 1226
-2.008822e+01 1.581695e+01 2.267846e+01 1230
-4.660739e+01 -1.680405e+01 1.124067e+00 1232
2.270457e+01 9.217583e-01 5.341998e+00 1238
4.327320e+01 -3.843079e+00 1.207695e+01 1242
-9.465389e+00 -9.247049e+00 2.942703e+00 1250
4.637960e+01 -1.564135e+01 1.272605e+01 1252
-5.902264e+00 6.475112e+00 2.958859e+01 1256
-5.469887e+00 1.663991e+01 1.879007e+00 1260
3.032430e+01 5.583033e+00 2.427375e+01 1273
-3.117307e+01 -5.373526e+00 2.077364e+00 1278
2.304349e+01 -9.932554e+00 1.576941e+00 1284
-2.181341e+01 3.477266e+00 2.635222e+01 1286
2.889258e+01 9.954512e+00 9.823484e-01 1292
4.730331e+01 2.325931e+01 7.603102e+00 1299
-6.747787e+00 -8.204684e-01 2.649684e+01 1312
-4.096793e+01 2.083388e+00 2.990351e+01 1315
-7.060471e+00 -5.579120e+00 1.871049e+01 1323
-2.840274e+01 -2.441832e+01 2.405949e+01 1326
-3.062600e+01 -2.331295e+01 2.291698e+01 1332
2.328012e+01 -1.972585e+01 2.526000e+01 1333
-4.898743e+01 -3.647189e+00 1.797648e+01 1334
1.834065e+01 -1.957890e+01 1.377938e+01 1337
-2.260582e+01 6.648300e+00 4.626543e+00 1340
-1.039603e+01 -1.264955e+01 2.940398e+01 1342
-4.487173e+00 5.909270e+00 1.768204e+01 1346
1.989602e+01 1.532231e+01 1.659801e+01 1350
6.335223e+00 -6.144391e+00 2.487492e+01 1351
3.131948e+01 1.121364e+00 1.882767e+01 1352
-1.049114e+01 -4.715446e+00 9.649786e+00 1356
4.575371e+01 2.070952e+01 2.923941e+01 1361
1.788961e+00 -6.953110e+00 1.402582e+01 1362
-4.793787e+01 5.175071e+00 1.442291e+01 1374
2.985641e+01 8.280668e+00 1.354801e+01 1375
2.719116e+01 1.060699e+01 1.516679e+01 1382
1.429485e+01 -3.227130e+00 2.111348e+01 1385
-3.068875e+00 -2.256545e+01 1.483525e+01 1395
4.829297e+01 2.252671e+01 1.055924e+01 1396
1.244658e+01 1.213710e+01 1.368552e+01 1415
8.487070e+00 -1.800093e+01 2.036189e+01 1420
-1.192920e+01 1.982841e+01 6.500417e+00 1421
1.561961e+01 -1.710721e+01 2.112862e+01 1423
4.799314e+01 -1.813747e+01 1.814100e+01 1428
1.545913e+01 -1.134686e+01 8.137926e+00 1442
4.582554e+01 -4.002028e+00 9.198757e-01 1446
4.611179e+00 -1.029795e+00 1.668572e+01 1451
6.258978e+00 6.205509e+00 1.213458e+01 1455
3.337902e+01 -9.200285e+00 1.708535e+00 1460
7.364543e+00 -1.537086e+01 1.778447e+01 1470
-2.535048e+01 -1.095742e+00 6.553444e+00 1471
-3.552079e+01 -8.090532e+00 2.100766e+01 1472
3.471597e+01 -9.827813e+00 1.305586e+01 1474
-7.472122e+00 -1.274359e+01 1.393127e+01 1478
-4.665668e+01 1.661914e+01 1.946479e+01 1479
-1.895601e+01 -1.269310e+01 1.326182e+01 1493
2.300163e+01 -1.686635e+01 1.058182e+01 1496
-6.540339e+00 -7.624716e+00 2.956726e+01 1500
-4.275197e+01 1.240814e+01 1.220196e+01 1502
1.458205e+01 1.728163e+01 1.683353e+01 1514
-5.591081e+00 -1.066517e+01 2.619457e+01 1516
3.652778e+01 -3.154058e+00 7.576444e-02 1517
-8.134209e+00 2.005672e+01 1.678786e+01 1518
-1.706497e+01 -1.954777e+01 7.850983e+00 1523
4.000549e+01 -1.966298e+01 2.685928e+01 1531
-9.130160e+00 1.877596e+01 3.301703e+00 1546
2.888711e+01 -2.528501e+00 8.239316e+00 1551
7.775686e-01 1.764865e+01 2.580509e+01 1576
-3.907771e+01 1.344395e+01 1.962653e+01 1580
-4.435310e+01 1.772904e+01 1.743827e+01 1582
4.206130e+01 -1.603465e+01 1.932475e+01 1584
-9.873379e+00 -1.356678e+01 1.837899e+01 1589
-3.660962e+01 2.084649e+01 2.737533e+01 1591
-2.588419e+01 2.398479e+01 2.992706e+01 1595
-1.023613e+01 1.149035e+01 2.591240e+01 1598
1.034070e+01 2.037434e+01 1.587361e+01 1606
3.441028e-01 -8.327603e+00 2.154440e+01 1615
1.752406e+01 -1.308077e+01 4.400032e+00 1617
2.765880e+01 -6.157982e+00 1.077861e+01 1620
-1.152370e+01 1.109577e+01 2.989138e+00 1623
-4.010858e+01 -2.268102e+01 8.965463e+00 1634
1.741019e+01 2.454673e+01 2.311276e+01 1642
-1.011810e+01 -4.143988e+00 1.348398e+01 1655
-4.471527e+01 1.516282e+01 2.750383e+00 1667
3.083385e+00 -2.034041e+01 1.937230e+01 1669
4.196467e+00 -8.365629e+00 1.540425e+01 1687
-4.653670e+01 2.356545e+01 2.202722e+01 1688
4.801713e+01 -1.100754e+01 1.019244e+01 1694
-4.328422e+01 -1.031735e+01 8.177645e+00 1701
1.951751e+01 1.772741e+01 2.181635e+01 1709
4.236914e+01 -5.693414e+00 2.596763e+01 1727
2.225634e+01 1.027337e+01 2.054443e+01 1735
3.530414e-01 6.599509e+00 8.896054e+00 1743
1.549940e+01 3.559724e+00 1.934952e+01 1744
2.928856e+01 7.168646e+00 4.014100e+00 1752
4.119521e+01 1.371425e+01 1.372142e+01 1754
-4.459654e+01 2.141905e+01 1.714224e+01 1756
5.190089e+00 7.739980e+00 2.062320e+01 1757
-4.093992e+01 1.778080e+01 5.478552e-02 1761
2.089507e+01 -3.738008e+00 7.963609e-01 1763
-4.801931e+01 -3.966408e+00 2.093066e+01 1773
-1.049689e+01 -2.041939e+01 1.589739e+01 1777
3.293002e+01 -1.263783e+01 8.599134e-01 1779
4.054636e+01 -1.142658e+01 2.596248e+01 1782
1.465065e+01 1.429784e+01 1.052738e+01 1784
-3.989635e+01 -8.579461e+00 1.510692e+01 1794
4.738239e+01 2.438368e+01 1.747809e+01 1798
-4.144000e+01 3.415972e+00 2.987700e+01 1801
-4.018269e+01 -2.090322e+01 1.781520e+01 1810
4.446179e+01 -2.474076e+01 1.211867e+01 1819
1.054886e+01 -2.424899e+01 1.729322e+01 1833
3.341269e+01 -6.558773e+00 2.492848e+01 1862
-3.169662e+01 3.056297e+00 1.443038e+01 1874
6.401392e+00 1.479055e+01 2.823693e+00 1876
2.955909e+01 -2.475085e+01 1.378212e+01 1877
2.294964e+01 1.894533e+01 1.744700e+01 1888
4.406282e+01 1.557862e+01 2.359886e+00 1895
-1.969452e+01 7.543329e-01 1.012549e+01 1906
4.145758e+01 -1.240247e+01 2.425777e+01 1908
2.285562e+01 -1.432926e+00 5.433259e+00 1912
4.841429e+01 -2.426278e+01 2.244196e+01 1918
-3.595769e+01 1.526118e+01 1.402887e+01 1920
7.771858e+00 1.848203e+01 1.676432e+01 1931
-1.059702e+01 2.463086e+01 7.120020e+00 1953
3.912900e+01 1.002259e+01 2.627017e+01 1959
-5.010047e+00 6.272578e+00 1.815227e+01 1968
-2.363837e+01 2.753776e+00 1.752001e+01 1972
-2.989041e+01 2.192778e+01 3.142414e+00 1973
4.085708e+01 2.375074e+00 1.458719e+01 1984
1.039979e+00 -1.029679e+01 1.611196e+01 1987
4.525875e+01 -2.351569e+01 8.470943e+00 1988
1.577259e+01 4.606999e+00 2.727773e+01 1990
4.132025e+01 1.357970e+01 2.091524e+01 1996
1.474889e+01 1.347628e+01 7.508864e+00 1997
-3.167182e+01 -4.130746e+00 2.337045e+01 2002
8.423786e+00 3.169015e+00 2.484772e+01 2009
3.275935e+00 2.432712e+01 1.861185e+01 2029
2.932268e+01 -3.820683e+00 2.833260e+01 2042
1.456835e+01 1.235847e+01 1.369108e+01 2044
-1.212380e+01 -1.634622e+01 2.622129e+01 2054
4.989942e+00 8.971972e+00 8.778320e+00 2057
-2.030838e+01 7.773275e+00 2.142170e+01 2063
4.640998e+01 1.928430e+01 8.081631e+00 2080
-4.486309e+00 1.062245e+01 7.851223e+00 2091
-3.181749e+01 -9.616461e+00 1.892484e+01 2093
2.658971e+01 7.679433e+00 2.435552e+00 2094
4.938613e+01 3.623948e+00 2.931403e+00 2108
-4.308302e+01 1.947221e+01 2.799671e+01 2109
-1.546359e+01 -6.970184e+00 4.295652e+00 2118
4.216494e+01 9.629264e+00 4.168545e+00 2128
1.040489e+01 -1.512027e+01 1.768078e+01 2129
-6.542585e+00 2.027238e+01 2.314440e+01 2137
7.587615e+00 4.182647e+00 3.991565e+00 2142
3.833878e+01 1.071796e+01 1.462658e+01 2145
-1.585536e+01 -1.688129e+01 1.055987e+01 2153
2.980489e+01 1.568858e+01 1.411625e+01 2154
-2.288520e+01 1.806833e+01 2.172501e+01 2159
6.525508e+00 -1.500431e+00 1.117686e+01 2166
2.071927e+00 -1.701587e+01 2.914096e+01 2177
-4.954248e+01 6.896708e+00 6.299713e+00 2191
5.841021e+00 2.412983e+01 2.404236e+00 2200
-1.454210e+01 -8.771980e+00 9.543640e+00 2210
-4.359709e+01 8.273084e+00 2.064282e+01 2217
1.079622e+01 -6.133204e+00 2.395313e+01 2227
4.278938e+01 4.540655e+00 2.849946e+01 2228
-7.261054e-02 -1.211524e+01 2.382770e+01 2233
3.058600e+01 2.755496e+00 4.519402e+00 2234
3.370432e+01 -1.950354e+01 2.344756e+01 2238
-3.872630e+01 1.025243e+01 2.136951e+01 2240
-4.107901e+01 -1.232331e+01 1.841411e+01 2244
-1.399383e+01 1.730992e+01 8.539678e+00 2252
-4.874810e+01 -1.139455e+01 2.830395e+00 2253
3.179359e+01 -2.366129e-01 6.823943e+00 2270
1.344752e+01 2.121617e+01 2.686212e+01 2287
6.297701e+00 6.793053e+00 1.335196e+01 2292
-3.809928e+01 1.573815e+01 2.804609e+00 2297
-2.480011e+01 -7.495804e+00 2.915717e+01 2307
2.300933e+01 9.858706e+00 8.508510e+00 2314
2.886568e+01 1.019528e+01 1.941243e+01 2334
4.763754e+01 -1.093395e+01 1.836657e+01 2347
7.040516e+00 6.745228e+00 2.713473e+01 2357
-1.793683e+01 2.435156e+01 2.786193e+01 2361
-2.679366e+01 9.753842e+00 2.673056e+01 2372
-2.627082e+01 -1.243227e+01 2.376848e+00 2386
-1.142531e+00 2.227046e+01 2.293621e+01 2399
3.304612e+01 -8.532048e+00 3.345288e+00 2408
-2.983818e+00 -1.032043e+01 2.984772e+01 2424
4.834353e+00 2.337894e+01 1.686299e+00 2425
4.098464e+01 -1.960470e+01 1.841152e+01 2426
2.100311e+01 -3.883926e+00 2.934352e+01 2428
-3.817323e+01 -8.995039e+00 1.869346e+01 2442
1.738887e+01 2.148809e+01 2.470115e+01 2451
-1.579879e+01 -1.646440e+01 2.402759e+01 2452
-1.812312e+01 -1.819532e+01 2.190607e+01 2454
-9.687465e+00 2.455585e+01 3.262116e+00 2461
3.911157e+01 -1.777073e+01 2.661035e+01 2494
-3.183075e+01 -4.799426e+00 2.057789e+01 2520
4.723333e+01 -1.473420e+01 1.231693e+00 2527
-3.064419e+01 1.906965e+00 2.407668e+00 2528
1.810348e+01 -1.883308e+01 2.586603e+01 2542
-3.574159e+01 1.091169e+01 1.928154e+01 2544
-2.004960e+01 1.220739e+01 2.026835e+01 2556
-1.902760e+01 -2.703007e+00 2.758420e+01 2566
-7.590704e+00 -1.166862e+01 4.124883e+00 2571
-4.419440e+01 -2.484891e+01 1.167801e+01 2584
-1.250057e+01 9.067830e+00 1.515678e+01 2586
1.861949e+01 -9.007346e+00 2.358847e+01 2587
-4.232123e+01 2.250104e+01 2.908340e+01 2594
3.923761e+01 -4.034362e+00 1.441997e+01 2595
-6.704746e+00 1.556582e+01 6.987937e+00 2597
5.123016e+00 1.715853e+01 1.221545e+01 2598
-1.430757e+01 -2.367183e+01 3.055138e+00 2607
-2.495271e+01 -2.180571e+01 2.569676e+01 2633
4.686294e+01 1.207329e+01 2.205941e+01 2634
2.144823e+01 2.401476e+01 2.645673e+01 2637
1.843234e+01 2.238115e+01 1.126744e+01 2640
1.387173e+01 -1.330235e+01 1.069998e+01 2644
-1.842814e+01 -8.846785e+00 4.981088e+00 2646
-1.169780e+01 -1.664626e+01 2.657106e+01 2651
-4.530484e+01 4.313326e+00 1.650196e+01 2670
-2.643878e+01 2.446338e+01 3.819871e+00 2691
-7.808620e+00 9.292664e+00 3.509903e+00 2704
-2.043375e+01 -1.986988e+01 1.893724e+01 2710
3.844396e+01 -5.198701e+00 2.673955e+01 2713
4.535851e+01 -1.733278e+01 2.145685e+01 2715
2.187102e+01 -5.763883e-01 7.187099e-01 2717
2.825905e+01 1.582659e+01 2.296651e+01 2731
3.775065e+01 -1.374569e+01 2.726496e+01 2734
2.823574e+01 -1.651818e+01 3.273999e-02 2739
-2.867387e+01 6.240265e+00 1.871024e+01 2752
-4.614812e+01 6.884714e+00 1.406878e+01 2760
-2.413005e+01 -2.213663e+01 2.756627e+01 2765
4.074850e+01 1.073869e+01 2.541337e+00 2769
3.543015e+01 9.089805e+00 2.544499e+01 2771
-3.110604e+01 -2.016285e+01 2.663508e+01 2772
1.920301e+01 -1.964791e+01 3.935636e+00 2782
-5.147806e-01 -9.036023e+00 2.675189e+01 2787
-2.690838e+01 5.391502e+00 2.634952e+00 2795
1.374618e+01 -1.028826e+01 2.599316e+01 2800
-7.493354e+00 -2.165458e+01 6.969205e+00 2814
4.731442e+00 1.634362e+01 2.904291e+01 2816
4.688435e+01 1.423450e+01 2.173789e+01 2819
-4.280591e+01 2.234200e+01 3.992771e+00 2836
-3.576643e+01 -9.183618e-01 8.454812e+00 2848
-2.791988e+01 -2.428494e+01 1.607550e+01 2852
4.479486e+01 1.834562e+01 2.280900e+01 2862
-4.471385e+01 1.525907e+00 1.768373e+01 2866
-1.668860e+01 1.040036e+01 6.735018e+00 2868
-2.141981e+01 -2.378585e+01 4.562647e+00 2877
1.473690e+01 3.198290e-01 5.379837e+00 2879
3.935529e+01 2.102941e+01 2.145759e+01 2883
-1.237847e+00 1.672085e+01 6.726267e+00 2906
-1.823883e+01 1.107376e+01 2.626560e+01 2907
3.128326e+01 1.703166e+01 1.943671e+00 2923
-3.554686e+01 -2.109720e+01 1.966062e+01 2926
-2.995794e+01 -1.852724e+00 1.665284e+01 2940
-3.383364e+01 1.635741e+01 1.589554e+01 2943
3.433639e+01 -1.433754e+01 1.954117e+01 2952
2.153252e+01 -5.433103e+00 1.683316e+00 2956
-5.472183e-01 -2.014717e+01 1.099220e+01 2970
2.003933e+01 -1.211186e+01 2.872515e+01 2982
9.790950e+00 9.466370e+00 1.714412e+01 2990
-3.827621e+01 1.356663e+01 1.261448e+01 2995
-2.332155e+01 5.101607e+00 1.279367e+01 2998
-3.208297e+01 2.479656e+01 7.662597e+00 3005
-2.152773e+01 1.788447e+00 1.059815e+00 3008
-1.122021e+00 5.616959e+00 2.782902e+01 3025
-4.412826e+01 5.438515e+00 2.239757e+01 3028
1.303582e+01 2.054997e+01 2.186344e+01 3059
-4.843053e+01 -1.809688e+01 2.309468e+01 3067
-1.862346e+00 -9.568775e+00 1.948683e+01 3081
1.671752e+01 -5.179341e-02 1.878388e+01 3083
-2.687604e+01 -1.206331e+01 1.319164e+01 3089
4.347056e+01 -1.405177e+01 1.864785e+01 3094
-4.174653e+01 -1.744134e+01 1.396415e+01 3103
4.293971e+00 1.213441e+01 1.022614e+01 3104
6.817471e-01 9.100292e+00 2.984680e+01 3110
1.306464e+01 1.654525e+01 6.568986e+00 3123
-4.571498e+01 -1.894601e+00 2.899312e+01 3153
2.462211e+01 -3.901111e+00 5.259765e-01 3156
4.148583e+01 -7.640764e+00 3.909483e+00 3157
-4.518636e+01 -1.480411e+01 1.395061e+00 3198
6.249265e+00 -7.269977e+00 2.391990e+01 3200
3.570940e+01 2.278311e+01 2.590085e+01 3218
-2.820813e+01 1.755452e+01 1.121775e+00 3223
-1.680471e+01 3.024823e+00 1.282005e+01 3244
2.542393e+01 4.830360e+00 1.871980e+01 3248
2.004461e+01 -1.446468e+01 2.517700e+01 3254
4.461974e+01 4.909937e+00 1.162012e+01 3257
4.246612e+01 -4.472068e+00 1.097552e+01 3259
-1.254560e+00 1.930377e+01 2.462128e+01 3262
4.390836e+01 -6.311243e+00 1.832192e+01 3263
2.742336e+01 -1.688227e+01 3.424417e+00 3273
-8.143938e+00 -2.122829e+01 2.150076e+01 3285
3.697620e+01 -1.564289e+01 3.176073e+00 3308
2.274296e+01 1.506942e+01 5.668909e+00 3317
-4.317998e+01 -7.582198e+00 6.301022e-01 3321
1.964162e+01 8.097513e+00 2.596663e+00 3333
2.776060e+01 1.366985e+01 1.443901e+01 3347
1.757876e+01 -9.421343e+00 2.690423e+00 3348
-2.444930e+01 -2.035260e+01 2.587850e+00 3353
-2.565681e+01 -1.983338e+01 2.768574e+01 3357
3.272821e+01 -7.470721e+00 9.955015e+00 3366
-2.567475e+01 1.180534e+01 1.237413e+01 3375
4.731350e+01 9.227441e+00 2.593229e+01 3383
3.770593e+01 -5.752636e+00 1.908494e+00 3398
-4.451811e+01 1.577763e+01 4.562060e+00 3402
-2.757617e+01 1.796998e+01 2.213490e+00 3431
-5.169984e+00 -8.323790e+00 2.034468e+01 3433
2.135632e+01 -1.629658e+01 2.992720e+01 3445
-4.257633e+01 -2.433457e+01 1.806367e+01 3447
2.648679e+01 1.927810e+01 2.442659e+01 3456
-3.334322e+01 -7.002566e+00 2.339270e+01 3460
-4.741982e+01 1.981977e+01 2.091330e+01 3461
3.762683e+01 -2.459504e+01 1.931368e+01 3463
-6.585837e+00 7.672655e+00 2.944446e+01 3464
4.995277e+01 -1.952120e+01 1.109023e+01 3474
-4.266733e+01 -2.117387e+00 1.213284e+01 3484
1.410071e+01 -2.480177e+01 3.230548e+00 3487
1.854330e+01 -7.779158e+00 2.358428e+01 3488
1.940307e+01 2.392723e+00 6.798966e+00 3491
2.907448e+01 -2.899813e+00 1.830876e+01 3492
-1.743768e+01 1.785630e+00 2.767995e+01 3498
-1.383167e+01 2.482173e+01 8.360814e+00 3500
2.399387e+00 -1.198313e+01 1.198452e+01 3503
-3.186362e+00 1.223765e+01 1.940487e+01 3527
-4.634777e+01 -3.185376e+00 7.455798e+00 3532
2.828104e+01 5.652095e-01 7.526253e+00 3535
-4.106445e+01 -1.892904e+01 1.976131e+01 3538
-2.754013e+01 -6.078970e+00 1.849155e+01 3562
4.560530e+01 -1.810479e+01 1.433214e+01 3578
2.023739e+01 8.846476e+00 1.029671e+01 3593
4.598133e+01 3.586285e+00 1.714169e+01 3594
-3.406712e+01 -2.179551e+01 3.868455e+00 3604
-2.396662e+01 -1.627678e+01 1.634925e+01 3612
9.779136e+00 -1.236042e+01 2.625162e+01 3614
3.891126e+01 -6.991254e+00 1.414531e+01 3621
-4.082614e+01 -1.944111e+00 7.717346e+00 3639
-3.549728e+01 1.243772e+01 1.936808e+00 3652
-1.219387e+01 1.868694e+00 1.028690e+01 3659
-2.329555e+01 -1.574867e+01 1.603508e+01 3663
4.803594e+01 2.157271e+01 2.271542e+01 3668
1.361959e+01 2.263585e+01 2.054307e+01 3669
4.194837e+01 -1.405183e+00 2.488242e+00 3675
3.860493e+01 -5.782443e+00 1.054814e+00 3677
-7.715061e+00 -1.745740e+01 3.908542e+00 3679
-3.892752e+01 7.353250e+00 1.277020e+01 3682
-4.301091e+01 -1.297290e+01 1.728992e+01 3685
-3.492533e+01 1.068261e+00 2.869269e+00 3686
3.928869e+01 -1.299137e+01 7.969693e+00 3713
3.939598e+01 -2.720857e+00 2.607283e+01 3717
-2.920213e+01 1.188071e+01 2.279439e+01 3727
-2.975766e+01 -1.316409e+01 2.664462e+01 3729
-3.257397e+01 -2.441544e+01 9.566473e+00 3730
1.944773e+01 1.909085e-01 1.990379e+01 3733
-1.419263e+01 1.386698e+00 5.594649e+00 3734
1.870305e+01 1.884352e+01 2.881627e+01 3736
2.573392e+01 1.010766e+00 7.444818e+00 3741
5.148370e+00 1.056390e+01 2.662351e+01 3747
-1.258369e+01 -1.738845e+01 1.357417e+01 3758
-2.875755e+01 -8.979179e+00 2.700795e+01 3760
-1.068906e+01 -1.842800e+01 1.411965e+01 3762
3.142634e+01 1.840083e+01 2.749725e+01 3771
-3.834509e+01 -5.041464e+00 1.896560e+01 3780
4.050271e+01 2.809027e+00 8.379252e+00 3788
-1.493123e+01 -1.395139e+01 1.480891e+00 3798
1.711317e+01 -1.805242e+01 2.806289e+01 3800
4.429535e+00 -1.384250e+01 1.434515e+01 3801
2.476026e+01 1.837063e+01 1.864556e+01 3804
-2.446133e+01 8.023010e+00 1.376446e+01 3820
5.221396e+00 9.573628e-01 2.772611e+01 3824
3.475585e+01 -6.455760e+00 3.667186e+00 3836
4.036098e+00 -1.278345e+01 3.621732e+00 3844
-4.925870e+01 1.479668e+01 2.561446e+01 3849
-2.539004e+01 -5.444420e+00 2.041871e+01 3854
2.635059e+01 1.416589e+01 2.049003e+01 3856
3.508893e+01 1.843538e+01 1.836422e+00 3857
2.694643e+00 2.008834e+01 1.663510e+01 3858
2.735214e+01 1.405473e+01 1.505663e+01 3859
-2.139939e+01 -2.259889e+01 1.751461e+01 3865
4.196029e+01 1.943856e+01 1.748114e+01 3880
2.738685e+01 -7.082230e+00 8.520898e+00 3889
4.601267e+01 1.761441e+01 2.059036e+01 3894
9.765594e+00 -2.080096e+01 1.715664e+00 3910
-5.512184e-01 -2.020103e+01 2.029469e+01 3911
4.380377e+01 1.367772e+01 2.087511e+01 3919
3.707986e+01 -2.311103e+01 1.824868e+01 3929
3.955507e+01 -6.236397e+00 2.783838e+01 3930
-3.642352e+01 2.066138e+01 2.037073e+01 3935
3.128372e+01 -1.556514e+00 5.741741e+00 3953
1.197663e+01 7.587594e+00 2.473487e+01 3957
2.361447e+01 2.111301e+01 2.635388e+01 3963
4.167409e-01 8.638016e+00 1.219061e+01 3969
2.092084e+01 2.087141e+01 9.551882e-01 3973
-3.696520e+01 -1.395812e+01 1.737210e+01 3984
-2.155854e+01 -9.619401e+00 2.274301e+01 3989
4.930428e+01 -6.933564e+00 2.201175e+01 4010
-3.469623e+01 1.217214e+00 6.225630e+00 4011
3.204022e+01 1.862106e+01 1.144522e+01 4016
1.277053e+00 5.101735e-02 1.747321e+01 4017
-1.933855e+01 -6.921965e+00 1.585349e+01 4020
3.199221e+01 -1.014939e+01 2.856492e+01 4034
-1.143830e+01 7.827261e+00 1.304999e+01 4036
-6.764022e+00 1.045635e+00 4.505767e+00 4037
-1.779342e+01 -5.411285e+00 1.069931e+01 4039
-1.199396e+01 4.592341e+00 2.649690e+01 4046
4.009089e+01 -1.905185e+01 2.851493e+01 4061
4.598636e+01 1.263783e+01 2.143780e+01 4064
1.473468e+01 9.334695e+00 2.562597e+01 4066
-4.283092e+01 -9.269158e+00 7.080059e+00 4079
2.211092e+01 1.340190e+01 6.969715e+00 4080
-3.990385e+01 8.379838e+00 1.113416e+01 4088
-2.928677e+01 -1.988757e+01 9.665046e+00 4104
3.696825e+01 -1.701441e+01 2.147537e+01 4106
-3.383296e+01 -2.451106e+01 5.214593e+00 4130
1.899914e+01 1.847746e+01 1.132808e+01 4144
-3.051927e+01 -3.461156e+00 1.920322e+01 4152
3.786288e+01 1.462857e+01 2.484700e+01 4161
4.379592e+01 1.762518e+01 1.986030e+01 4163
-1.896852e+01 -2.265061e+01 1.758340e+01 4165
3.580067e+01 -5.475307e+00 5.766550e+00 4170
-4.193169e-02 4.749857e+00 1.994548e+01 4172
-1.225180e+01 -3.129065e+00 1.630888e+01 4178
1.353171e+01 1.578457e+01 1.166974e+01 4183
-9.599870e+00 1.163096e+01 2.867694e+01 4184
1.859326e+01 -1.714513e+01 3.922926e+00 4194
-2.286902e+01 6.435082e+00 2.849579e+01 4201
1.264150e+01 -2.326931e+01 1.560460e+01 4209
-1.091488e+01 -2.411652e+01 3.014062e+00 4211
5.896524e+00 2.115302e+01 2.224385e+01 4239
1.468090e+01 1.580966e+01 3.279113e+00 4245
3.119884e+01 5.468528e+00 2.429800e+00 4248
1.884902e+01 -2.071784e+01 1.413249e+01 4252
-2.035023e+01 -3.396812e+00 2.667802e+01 4256
-1.736062e+01 1.565685e+01 6.681272e+00 4265
-5.498520e+00 2.125186e+01 1.993287e+01 4266
1.632005e+01 8.483251e+00 2.729714e+01 4268
3.562178e+01 -1.771080e+01 2.191419e+01 4302
4.390719e+01 1.645543e+01 1.614130e+01 4304
4.839803e+01 -1.084145e+01 3.240663e+00 4306
-4.698562e+01 5.505988e-03 1.857923e+01 4308
-3.267675e+01 3.102013e+00 3.862707e+00 4314
2.925175e+01 -8.238171e+00 2.463556e+01 4318
2.797294e+01 9.880005e+00 1.815918e+01 4325
4.366809e+01 5.093267e+00 2.536374e+01 4327
-2.424743e+01 -1.548283e+01 2.750737e+01 4332
1.052088e+01 -1.266531e+01 7.904520e+00 4340
-1.497739e+01 4.977670e+00 2.153866e+01 4347
1.896027e+01 1.237108e+01 2.993161e+01 4348
-3.150613e+01 -3.400365e-01 4.517833e-01 4351
2.101032e+00 -7.107028e+00 1.212588e+01 4352
-3.024185e+01 1.109618e+01 2.903530e+01 4353
1.194603e+01 1.757336e+01 2.595624e+00 4359
-2.485845e+01 1.026546e+01 5.269952e+00 4370
3.865109e+01 -9.292078e+00 5.102557e+00 4378
-2.960653e+01 2.007865e+01 1.134824e+01 4389
1.162147e+01 -2.231342e+01 6.697292e+00 4395
4.885582e-02 1.424985e+01 2.496465e+01 4396
-2.022227e+01 2.146177e+01 2.253911e+01 4402
-3.785764e+00 -2.498672e+00 1.649489e+01 4404
3.708129e+01 -9.674454e+00 3.126834e+00 4408
3.990401e+01 -2.170214e+01 2.227356e+01 4409
1.042276e+01 9.771844e+00 6.143898e-01 4423
-8.756291e+00 -5.671090e+00 2.635014e+01 4432
-3.100316e+01 1.715028e+01 1.666285e+01 4434
-4.076227e+01 3.976271e-01 1.154106e+01 4435
1.364494e+01 1.045040e+01 1.468009e+01 4448
-3.560287e+01 1.261896e+01 2.970084e+01 4453
-4.797016e+01 1.069756e+01 2.237802e+01 4462
-2.303652e+01 2.026504e+01 2.824096e+01 4470
-2.191566e+01 2.298038e+01 4.102368e+00 4480
2.040270e+01 1.932155e+01 1.401492e+01 4481
2.653166e+01 1.185991e+00 2.451786e+01 4485
-1.657110e+01 1.338650e+01 1.631065e+01 4488
8.967973e+00 -9.978050e+00 9.649776e+00 4511
4.789043e+01 -5.246690e+00 1.807701e+01 4512
1.723908e+01 -7.640556e-01 1.911896e+01 4515
2.590764e+01 2.678602e+00 1.064451e+01 4524
-1.241110e+01 -2.408814e+01 1.280294e+01 4534
-7.869642e+00 9.957963e+00 2.487661e+01 4537
-2.157030e+01 1.195938e+01 7.459505e+00 4538
-1.932388e-01 1.903643e+00 1.856048e+01 4541
-3.203981e+01 1.333116e+01 9.356920e+00 4544
4.514458e+01 -3.684447e+00 2.959274e+01 4553
-1.139535e+01 2.236550e+01 1.470629e+01 4578
1.173804e+01 1.226681e+01 1.920006e+01 4584
4.848928e+01 -6.367830e+00 1.175061e+01 4595
-4.581019e+01 6.056943e+00 1.194500e+01 4602
2.401323e+01 -1.196407e+01 8.553646e+00 4606
4.494295e+01 1.832625e+01 2.276989e+00 4614
4.010588e+01 -4.007193e-02 4.810290e+00 4618
2.345258e+00 -3.489599e+00 6.582654e+00 4620
-3.248889e+01 -5.340212e+00 4.424531e-02 4621
3.481056e+01 -1.422375e+01 7.957636e+00 4623
-1.184188e+01 -2.431459e+01 6.470628e+00 4624