Title = Snapshot #7
Variables=X Y Z PartID
Zone I= 6427, F=POINT
-8.481411e+00 2.418483e+01 7.956304e+00 0
6.625634e+00 -1.014222e+01 2.059900e+01 2
1.728569e+00 1.159727e+01 2.813650e+01 8
3.910014e+00 1.827860e+01 2.086597e+01 12
-1.118434e+01 5.576494e+00 9.422504e+00 14
-3.735310e+01 1.992160e+01 1.042668e+00 17
-2.649463e+01 1.280386e+01 1.044436e+01 18
2.511168e+01 2.481205e+01 1.326626e+01 20
-4.179057e+01 -2.223998e+01 1.761961e+01 21
-2.611334e+01 -1.501842e+01 2.669205e+01 23
1.391223e+01 -1.231348e+01 1.387392e+01 31
-2.020963e+01 -1.731136e+00 5.131135e+00 41
3.301557e+00 7.862929e+00 1.159082e+01 42
-2.843134e+01 3.516893e+00 2.497462e+01 45
-1.251496e-01 -8.663777e-01 2.863272e+01 46
4.588436e+01 5.637102e+00 2.532206e+01 68
-3.194390e+01 -1.380935e+01 6.753705e+00 80
2.082565e+01 1.295312e+01 7.242509e+00 91
2.398858e+01 -1.144447e+01 2.253960e+01 95
2.569399e+01 1.497802e+01 2.691796e+01 98
-4.196132e+01 5.816072e+00 2.902682e+01 133
3.895731e+01 1.356738e+01 1.576725e+01 135
2.823946e+00 -8.594758e+00 1.565865e+01 137
2.792596e+01 9.328571e+00 1.371864e+01 150
-2.124956e+01 -7.327868e+00 1.011079e+01 158
-2.441210e+01 -2.248269e+01 1.684838e+01 166
2.481558e+01 1.791032e-01 1.510947e+01 171
1.872995e+01 1.179630e+01 4.660983e+00 181
-1.427719e+01 9.216782e+00 1.291789e+01 214
-2.280849e+01 2.274496e+01 8.719659e+00 217
-4.618725e+01 -1.286097e+01 2.379747e+01 219
-1.117007e+00 1.943090e+00 9.204670e+00 233
1.727909e+01 -1.718073e+01 4.982830e+00 257
-4.744335e+01 -2.364906e+01 1.999230e+01 279
4.322492e+00 2.161622e+00 1.808647e+01 295
-4.785630e+01 -1.839850e+01 2.461566e+00 309
2.460383e+01 -2.460034e+01 7.113420e+00 311
3.310143e+01 -1.934232e+01 7.338925e+00 317
1.938339e+00 -4.396279e-01 2.344884e+01 319
5.372971e+00 -1.918218e+01 2.261036e+01 321
-4.689922e+01 1.483797e+01 1.515544e+01 325
-3.396700e+01 -1.064408e+01 7.312568e+00 340
3.613394e+01 2.373717e+01 2.715458e+01 352
3.901004e+01 1.556825e+01 1.654723e+01 363
4.805792e+01 -1.140228e+01 2.766892e+01 364
-1.866560e+01 2.344916e+01 3.547214e+00 373
3.565058e+01 -2.471173e-01 2.817575e+01 375
-3.063463e+01 1.335526e+01 4.282049e+00 396
1.164045e+01 1.000699e+01 1.269397e+01 412
-1.955566e+01 -1.958108e+01 2.588466e+01 425
1.696173e+00 1.384144e+01 3.697298e-01 426
-1.163819e+01 7.416999e-03 7.633278e+00 427
1.534032e+01 1.066722e+01 2.444412e+01 441
1.173640e+01 1.790739e+01 2.643490e+01 443
2.435354e+00 1.663211e+01 2.382552e+01 454
1.963530e+01 1.085721e+01 2.678752e+01 457
-8.314780e+00 2.205168e+01 1.709471e+01 467
2.859694e+01 -1.439612e+01 9.213336e+00 477
3.491086e+01 3.969495e+00 5.810296e+00 504
-1.287276e+01 6.130859e+00 1.290652e+01 505
4.038844e+00 1.290541e+01 2.992099e+01 506
-4.376088e+00 -1.299620e+01 1.022904e+01 510
-1.258874e+01 1.116129e+01 6.258167e+00 521
-2.043077e+01 -1.896754e+01 7.445219e+00 524
-4.288472e+01 7.539376e+00 2.140599e+01 536
1.319817e+01 1.789088e+01 9.323772e-01 537
-1.714370e+01 -1.311071e+01 2.930580e+01 555
4.154991e+01 1.491834e+01 2.688246e+01 558
-1.821766e+01 4.194279e+00 2.975170e+01 559
2.108912e+01 1.328091e+01 2.980924e+01 564
3.478496e+01 1.879790e+01 1.633640e+01 578
-8.630454e+00 2.059902e+01 4.421891e-01 581
-2.931780e+01 1.306751e+01 1.462959e+01 588
3.919766e+01 2.204998e+01 1.454285e+01 591
-7.563913e+00 1.692418e+01 2.554167e+01 594
-1.182521e+01 -2.451174e+01 6.370512e-01 611
-4.954813e+01 -5.197814e+00 1.384154e+01 626
3.738048e+01 1.622910e+01 2.285356e+00 629
-1.478143e+01 2.165118e+01 2.622593e+01 634
-5.156713e+00 -1.480452e+01 6.090937e+00 636
-2.387024e+01 -7.686373e+00 2.437042e+01 640
8.462924e+00 1.831616e+01 2.745114e+01 642
4.585930e+01 1.431636e+01 1.251317e+01 643
2.191029e+01 1.656389e+01 2.639149e+00 650
4.543986e+01 -2.339431e+01 8.400729e+00 657
-1.674190e+01 8.650043e-01 2.108051e+01 661
-4.767287e+01 -9.409108e+00 6.710300e+00 667
6.027438e+00 -1.203251e+01 2.430998e+01 674
2.496903e+01 -1.171275e+01 3.352678e+00 675
2.349634e+00 -1.611707e+01 1.430688e+01 686
3.588151e+01 2.433754e+00 1.950154e+01 687
9.748009e+00 -6.219376e+00 2.972426e+01 688
-3.177291e+01 -1.656242e+01 2.034849e+01 691
4.460279e+01 -8.871342e+00 2.736171e+01 695
-2.952927e+01 -6.104727e+00 9.389214e+00 697
-2.960493e+01 1.811143e+01 1.428966e+01 701
-2.952707e+01 -1.082061e+01 2.588676e+01 702
-2.301114e+01 1.691959e+01 2.704001e+01 704
4.418090e+01 -3.592560e+00 2.762537e+01 706
-2.642992e+01 -2.297463e+01 1.182793e+01 721
4.101538e+01 2.252161e+01 1.019737e+01 723
2.585546e+01 1.526381e+01 2.117252e+01 724
1.292561e+01 1.263444e+01 1.103254e+01 729
-9.524722e+00 -7.908017e+00 2.485478e+01 731
-4.075043e+01 2.439454e+01 2.970536e+01 733
-2.655344e+01 1.534961e+01 1.741842e+01 743
-4.882622e+01 2.444130e+00 2.819191e+01 745
2.663718e+01 1.022661e+01 2.850834e+01 747
-8.703274e+00 -4.481616e+00 3.501589e+00 749
2.788739e+01 -1.096985e+01 9.948168e+00 752
1.490127e+01 1.170614e+01 2.631703e+01 754
-3.044577e+01 1.812786e+00 2.193874e+01 763
3.706387e+01 2.471856e+01 4.870716e+00 764
-1.110882e+00 -1.302037e+01 3.018691e+00 776
-4.508352e+01 -2.371063e+01 4.104577e+00 782
3.123953e+01 -7.734725e+00 1.214666e+01 783
-2.210670e+01 8.977700e+00 6.552415e+00 791
-3.198378e+01 1.769466e+01 2.608599e+01 793
-2.910554e+00 1.749070e+01 2.420913e+01 797
4.798870e+00 -3.845998e+00 2.375981e+01 814
6.165445e+00 -1.267551e+01 2.759944e+01 823
2.917812e+01 2.014721e+00 1.647223e+01 841
-2.583677e+00 -2.499617e+01 1.170418e+01 847
-4.859290e+01 -1.802918e+01 3.085618e+00 848
2.224274e+01 2.038841e+00 2.482289e+01 852
-1.056954e+00 -6.749074e+00 3.346468e+00 853
9.302863e+00 5.202771e+00 1.066910e+01 860
1.266157e+01 -6.627360e+00 3.804396e+00 862
1.614007e+01 1.336827e+01 1.068462e-01 865
-5.592365e+00 1.218310e+01 1.491181e+01 871
-1.725605e+01 -1.906277e+01 1.820791e+01 879
4.949223e+00 -1.529638e+01 2.159897e+01 890
-4.088849e+01 2.181716e+01 3.990320e+00 891
-3.948981e+01 2.009658e+01 2.956134e+01 892
-3.761341e+01 1.124910e+01 1.633117e+01 893
-7.759602e+00 1.743862e+00 1.516121e+01 899
1.400798e+01 -2.118016e+01 1.726158e+01 901
3.726303e+01 5.161932e+00 1.303888e+00 903
-3.152989e+01 7.762986e+00 1.436993e+01 918
-4.181567e+01 -4.238824e+00 1.941523e+01 928
-1.342642e+00 2.263914e+01 2.880518e+01 938
-1.616126e+01 2.275891e+01 2.515931e+01 939
-3.331966e+01 -1.148934e+01 9.578376e+00 961
-1.320953e+01 -7.377958e+00 2.943950e+01 971
1.303591e+01 -2.309451e+01 1.629759e+01 974
1.214117e+01 -4.036265e-01 2.490809e+01 980
-8.073703e+00 -1.340524e+01 2.046407e+00 984
1.941617e+01 1.963203e+01 2.772739e+01 994
-3.585852e+01 -8.404500e+00 5.867128e+00 1000
6.294350e-01 8.085963e+00 2.697588e+01 1005
-3.959133e+01 1.031002e+01 1.986715e+01 1010
-2.091451e+01 1.343430e+01 2.972466e+01 1013
-4.358898e+01 5.715172e+00 2.218445e+01 1019
-4.599931e+00 -1.499133e+01 9.788286e-01 1024
-2.982388e+01 -1.243922e+01 2.414376e+01 1033
-1.430214e+00 2.471993e+01 1.808511e+01 1042
4.060169e+01 7.958547e+00 2.231927e+01 1046
5.804317e+00 2.366245e+01 8.437573e+00 1054
-3.491443e+00 -6.828350e+00 2.433220e+01 1056
-4.061583e+01 2.310955e+01 3.802566e+00 1058
1.719951e+01 2.375226e+01 3.917816e+00 1091
2.036847e+01 2.011657e+01 4.935963e+00 1096
-1.698924e+01 -1.101506e+01 2.718028e+01 1100
4.557939e+01 -2.304609e+01 2.059058e+01 1104
-1.456308e-01 1.219177e+01 8.394283e+00 1119
4.864636e+01 6.998686e+00 7.070247e+00 1122
1.736887e+01 1.709531e+01 6.470031e+00 1133
-3.156759e+01 1.972565e+01 1.406355e+01 1137
1.495216e+01 1.103865e+01 2.648653e+00 1140
-3.494542e+01 -1.961198e+01 1.251609e+01 1147
1.331691e+01 1.466933e+01 1.465290e+01 1168
2.093066e+01 9.789509e+00 6.548396e+00 1183
-4.938974e+01 -2.199576e+01 1.191360e+01 1193
-2.723855e+01 -1.903871e+01 1.157118e+01 1196
3.881467e+01 6.275343e+00 2.179160e+01 1210
3.280875e-01 1.879164e+01 3.826364e+00 1226
-2.042166e+01 1.584480e+01 2.279328e+01 1230
-4.674313e+01 -1.678622e+01 1.125095e+00 1232
2.250880e+01 9.097756e-01 5.316368e+00 1238
4.312009e+01 -3.890274e+00 1.208348e+01 1242
-9.719329e+00 -9.132580e+00 2.951475e+00 1250
4.624799e+01 -1.570501e+01 1.271537e+01 1252
-6.249132e+00 6.477504e+00 2.956247e+01 1256
-5.647117e+00 1.667894e+01 1.932630e+00 1260
3.005669e+01 5.593875e+00 2.427513e+01 1273
-3.134890e+01 -5.334583e+00 2.107464e+00 1278
2.288159e+01 -9.957717e+00 1.569617e+00 1284
-2.212533e+01 3.417744e+00 2.642845e+01 1286
2.879506e+01 9.939262e+00 9.636134e-01 1292
4.711677e+01 2.328051e+01 7.562865e+00 1299
-6.982910e+00 -8.348720e-01 2.638209e+01 1312
-4.130015e+01 2.091363e+00 2.973565e+01 1315
-7.301133e+00 -5.626359e+00 1.858926e+01 1323
-2.884586e+01 -2.448095e+01 2.391585e+01 1326
-3.106531e+01 -2.339600e+01 2.278418e+01 1332
2.302542e+01 -1.967990e+01 2.526771e+01 1333
-4.908906e+01 -3.791199e+00 1.797033e+01 1334
1.819482e+01 -1.964334e+01 1.371921e+01 1337
-2.279754e+01 6.786651e+00 4.626390e+00 1340
-1.059466e+01 -1.271163e+01 2.945770e+01 1342
-4.692591e+00 5.940745e+00 1.754403e+01 1346
-5.161375e+00 -1.895325e+01 2.989078e+01 1347
1.966388e+01 1.524358e+01 1.662152e+01 1350
6.132426e+00 -6.152022e+00 2.480672e+01 1351
3.103121e+01 1.143285e+00 1.884055e+01 1352
-1.073843e+01 -4.692391e+00 9.534806e+00 1356
4.538851e+01 2.065261e+01 2.918164e+01 1361
1.495716e+00 -7.001303e+00 1.397720e+01 1362
-4.813206e+01 5.198477e+00 1.437640e+01 1374
2.965737e+01 8.299388e+00 1.359446e+01 1375
2.691197e+01 1.063864e+01 1.521919e+01 1382
1.408468e+01 -3.248468e+00 2.115610e+01 1385
-3.239760e+00 -2.249255e+01 1.479315e+01 1395
4.811709e+01 2.256445e+01 1.051352e+01 1396
1.228567e+01 1.213797e+01 1.371049e+01 1415
8.260453e+00 -1.794542e+01 2.043420e+01 1420
-1.216502e+01 1.982491e+01 6.506715e+00 1421
1.542949e+01 -1.709152e+01 2.118588e+01 1423
4.779154e+01 -1.813767e+01 1.813753e+01 1428
1.527133e+01 -1.133198e+01 8.103747e+00 1442
4.562163e+01 -3.968732e+00 9.331335e-01 1446
4.425740e+00 -1.075756e+00 1.661074e+01 1451
6.077561e+00 6.149798e+00 1.208954e+01 1455
3.325840e+01 -9.194197e+00 1.712534e+00 1460
7.179716e+00 -1.530323e+01 1.778529e+01 1470
-2.558634e+01 -9.787909e-01 6.528083e+00 1471
-3.581602e+01 -8.049649e+00 2.090691e+01 1472
3.458064e+01 -9.903341e+00 1.301298e+01 1474
-7.805726e+00 -1.271432e+01 1.389676e+01 1478
-4.686555e+01 1.658635e+01 1.929805e+01 1479
-1.906979e+01 -1.273329e+01 1.330116e+01 1493
2.279079e+01 -1.692677e+01 1.052105e+01 1496
-6.811988e+00 -7.584896e+00 2.952152e+01 1500
-4.302342e+01 1.240019e+01 1.207681e+01 1502
1.438047e+01 1.724093e+01 1.684228e+01 1514
-5.858932e+00 -1.064782e+01 2.613968e+01 1516
3.650650e+01 -3.145437e+00 7.128701e-02 1517
-8.415459e+00 1.996304e+01 1.663347e+01 1518
-1.730005e+01 -1.953105e+01 7.865611e+00 1523
3.971482e+01 -1.971991e+01 2.681102e+01 1531
-9.326978e+00 1.880134e+01 3.312843e+00 1546
2.872842e+01 -2.492992e+00 8.283545e+00 1551
5.782183e-01 1.763310e+01 2.574475e+01 1576
-3.938008e+01 1.350714e+01 1.947428e+01 1580
-4.458368e+01 1.778880e+01 1.726562e+01 1582
4.174856e+01 -1.602941e+01 1.929904e+01 1584
-1.017069e+01 -1.359124e+01 1.831608e+01 1589
-3.696625e+01 2.082958e+01 2.725756e+01 1591
-1.057604e+01 1.156124e+01 2.594174e+01 1598
1.008551e+01 2.030673e+01 1.591239e+01 1606
1.497661e-01 -8.306936e+00 2.146017e+01 1615
1.733671e+01 -1.315260e+01 4.414018e+00 1617
2.742669e+01 -6.161585e+00 1.075794e+01 1620
-1.169790e+01 1.112998e+01 2.917467e+00 1623
-4.049163e+01 -2.264115e+01 8.826961e+00 1634
1.710615e+01 2.461911e+01 2.309639e+01 1642
-1.039045e+01 -4.173789e+00 1.342135e+01 1655
-4.492453e+01 1.512662e+01 2.705569e+00 1667
2.898419e+00 -2.027169e+01 1.934853e+01 1669
4.036697e+00 -8.396237e+00 1.536982e+01 1687
-4.669890e+01 2.351235e+01 2.188954e+01 1688
4.787570e+01 -1.101587e+01 1.023555e+01 1694
-4.349375e+01 -1.035130e+01 8.106508e+00 1701
1.926816e+01 1.782763e+01 2.190425e+01 1709
4.204427e+01 -5.613478e+00 2.591031e+01 1727
2.197675e+01 1.021810e+01 2.064698e+01 1735
2.238343e-01 6.551877e+00 8.837980e+00 1743
1.530300e+01 3.519140e+00 1.936141e+01 1744
2.912605e+01 7.132770e+00 4.014088e+00 1752
4.095441e+01 1.378007e+01 1.366995e+01 1754
-4.478928e+01 2.137161e+01 1.696798e+01 1756
4.887784e+00 7.645995e+00 2.057578e+01 1757
-4.096513e+01 1.779626e+01 5.381254e-02 1761
2.070590e+01 -3.776249e+00 8.311399e-01 1763
-4.812735e+01 -4.115342e+00 2.095967e+01 1773
-1.064203e+01 -2.048876e+01 1.586625e+01 1777
3.275486e+01 -1.267496e+01 8.446146e-01 1779
4.024250e+01 -1.142971e+01 2.596887e+01 1782
1.448064e+01 1.430119e+01 1.051893e+01 1784
-4.009939e+01 -8.511628e+00 1.491792e+01 1794
4.720743e+01 2.441469e+01 1.744876e+01 1798
-4.172498e+01 3.446865e+00 2.967566e+01 1801
-4.051249e+01 -2.084043e+01 1.766509e+01 1810
4.432844e+01 -2.469249e+01 1.206995e+01 1819
1.045698e+01 -2.427172e+01 1.739659e+01 1833
3.315014e+01 -6.547117e+00 2.484015e+01 1862
-3.185521e+01 3.012855e+00 1.441366e+01 1874
6.182322e+00 1.483010e+01 2.891998e+00 1876
2.935312e+01 -2.479146e+01 1.376466e+01 1877
2.273445e+01 1.887042e+01 1.748768e+01 1888
4.393808e+01 1.547959e+01 2.383257e+00 1895
-1.989640e+01 8.111908e-01 1.019946e+01 1906
4.110684e+01 -1.239137e+01 2.423671e+01 1908
2.264520e+01 -1.423396e+00 5.381050e+00 1912
4.802709e+01 -2.433192e+01 2.245710e+01 1918
-3.613429e+01 1.521185e+01 1.382761e+01 1920
7.507861e+00 1.848203e+01 1.673509e+01 1931
-1.084146e+01 2.455289e+01 7.091493e+00 1953
3.877733e+01 1.006329e+01 2.630279e+01 1959
-5.275201e+00 6.302377e+00 1.805817e+01 1968
-2.383347e+01 2.713935e+00 1.768099e+01 1972
-3.004567e+01 2.183517e+01 3.214969e+00 1973
4.066506e+01 2.382746e+00 1.458940e+01 1984
8.631131e-01 -1.031136e+01 1.604045e+01 1987
4.511604e+01 -2.350734e+01 8.410261e+00 1988
1.547672e+01 4.540810e+00 2.740344e+01 1990
4.101636e+01 1.357076e+01 2.082860e+01 1996
1.462234e+01 1.348852e+01 7.523750e+00 1997
-3.198077e+01 -4.026051e+00 2.343094e+01 2002
8.244309e+00 3.205280e+00 2.474111e+01 2009
3.148817e+00 2.427809e+01 1.864288e+01 2029
2.904505e+01 -3.814212e+00 2.840457e+01 2042
1.440265e+01 1.234320e+01 1.368209e+01 2044
-1.230952e+01 -1.629731e+01 2.618890e+01 2054
4.869276e+00 9.029765e+00 8.787583e+00 2057
-2.053847e+01 7.716777e+00 2.149914e+01 2063
4.619102e+01 1.928412e+01 8.003737e+00 2080
-4.712306e+00 1.062096e+01 7.812624e+00 2091
-3.215761e+01 -9.514835e+00 1.903721e+01 2093
2.646290e+01 7.663553e+00 2.438674e+00 2094
4.925974e+01 3.676789e+00 2.936318e+00 2108
-4.342633e+01 1.946122e+01 2.799089e+01 2109
-1.566360e+01 -6.996430e+00 4.171344e+00 2118
4.206653e+01 9.636742e+00 4.150866e+00 2128
1.025037e+01 -1.511531e+01 1.766699e+01 2129
-6.742201e+00 2.025520e+01 2.304179e+01 2137
7.433925e+00 4.217966e+00 3.936394e+00 2142
3.809644e+01 1.078592e+01 1.464520e+01 2145
3.337129e+01 -2.849524e+00 2.996407e+01 2151
-1.610172e+01 -1.696041e+01 1.046159e+01 2153
2.958005e+01 1.572448e+01 1.410659e+01 2154
-2.325178e+01 1.801389e+01 2.188967e+01 2159
6.364733e+00 -1.513010e+00 1.107474e+01 2166
1.752002e+00 -1.695471e+01 2.902486e+01 2177
-4.985368e+01 6.866918e+00 6.211664e+00 2191
5.668155e+00 2.415451e+01 2.432089e+00 2200
-1.483381e+01 -8.746140e+00 9.486790e+00 2210
-4.384722e+01 8.314304e+00 2.048454e+01 2217
1.061392e+01 -6.218061e+00 2.395064e+01 2227
4.241464e+01 4.492913e+00 2.855603e+01 2228
-3.850143e-01 -1.207063e+01 2.365287e+01 2233
3.045851e+01 2.762243e+00 4.517980e+00 2234
3.348126e+01 -1.953053e+01 2.337304e+01 2238
-3.905367e+01 1.027422e+01 2.125544e+01 2240
-4.124198e+01 -1.238845e+01 1.823305e+01 2244
-1.428774e+01 1.724090e+01 8.452519e+00 2252
-4.903457e+01 -1.136837e+01 2.738123e+00 2253
3.164583e+01 -2.187632e-01 6.863209e+00 2270
1.308541e+01 2.131150e+01 2.691255e+01 2287
6.149639e+00 6.740654e+00 1.326471e+01 2292
-3.829049e+01 1.583784e+01 2.853206e+00 2297
-2.507754e+01 -7.508271e+00 2.915536e+01 2307
2.282392e+01 9.824068e+00 8.494482e+00 2314
2.856112e+01 1.020963e+01 1.950105e+01 2334
4.755191e+01 -1.099998e+01 1.842641e+01 2347
6.830433e+00 6.697479e+00 2.707856e+01 2357
-1.820816e+01 2.437827e+01 2.792085e+01 2361
-2.714820e+01 9.768603e+00 2.679425e+01 2372
-2.646953e+01 -1.228309e+01 2.420717e+00 2386
-1.397195e+00 2.221215e+01 2.288488e+01 2399
3.285691e+01 -8.520633e+00 3.362391e+00 2408
-3.296595e+00 -1.027833e+01 2.973867e+01 2424
4.698728e+00 2.339277e+01 1.712758e+00 2425
4.062195e+01 -1.957356e+01 1.836749e+01 2426
2.068179e+01 -3.908728e+00 2.929433e+01 2428
-3.842014e+01 -8.995175e+00 1.848668e+01 2442
1.708464e+01 2.158703e+01 2.476986e+01 2451
-1.602077e+01 -1.645153e+01 2.409428e+01 2452
-1.824080e+01 -1.824060e+01 2.193988e+01 2454
-9.897068e+00 2.448294e+01 3.205576e+00 2461
3.884840e+01 -1.781823e+01 2.654580e+01 2494
-3.216735e+01 -4.701729e+00 2.067196e+01 2520
4.705579e+01 -1.470800e+01 1.236038e+00 2527
-3.075922e+01 1.942073e+00 2.468481e+00 2528
1.781000e+01 -1.882025e+01 2.589553e+01 2542
-3.597886e+01 1.094801e+01 1.914409e+01 2544
-2.029767e+01 1.222587e+01 2.038884e+01 2556
-1.931538e+01 -2.734852e+00 2.762939e+01 2566
-7.807420e+00 -1.165094e+01 4.092001e+00 2571
4.990407e+01 2.228114e+01 3.601924e+00 2580
-4.451076e+01 -2.489169e+01 1.157615e+01 2584
-1.271220e+01 9.057039e+00 1.514601e+01 2586
1.835903e+01 -9.043505e+00 2.360338e+01 2587
-4.266432e+01 2.250245e+01 2.905731e+01 2594
3.901945e+01 -4.087811e+00 1.442474e+01 2595
-6.965020e+00 1.557329e+01 6.945879e+00 2597
4.905504e+00 1.712581e+01 1.223409e+01 2598
-1.454550e+01 -2.372664e+01 3.100541e+00 2607
-2.536039e+01 -2.176406e+01 2.568443e+01 2633
4.654801e+01 1.204589e+01 2.196804e+01 2634
2.112199e+01 2.410710e+01 2.642990e+01 2637
1.822687e+01 2.234799e+01 1.123972e+01 2640
1.368287e+01 -1.334257e+01 1.069997e+01 2644
-1.871223e+01 -8.808321e+00 5.005752e+00 2646
-1.187754e+01 -1.660056e+01 2.655059e+01 2651
-4.554495e+01 4.250310e+00 1.627583e+01 2670
-2.663412e+01 2.438718e+01 3.862568e+00 2691
-8.136385e+00 9.134547e+00 3.462314e+00 2704
-2.060039e+01 -1.986586e+01 1.910248e+01 2710
3.817479e+01 -5.211082e+00 2.670990e+01 2713
4.501909e+01 -1.731903e+01 2.141759e+01 2715
2.176989e+01 -5.978049e-01 7.025916e-01 2717
2.794774e+01 1.580251e+01 2.306136e+01 2731
3.745249e+01 -1.375669e+01 2.726738e+01 2734
2.822054e+01 -1.652335e+01 3.293846e-02 2739
-2.888316e+01 6.172095e+00 1.895802e+01 2752
-4.646531e+01 6.981247e+00 1.401384e+01 2760
-2.446459e+01 -2.211222e+01 2.752105e+01 2765
4.059670e+01 1.072738e+01 2.586974e+00 2769
3.511006e+01 9.124477e+00 2.550161e+01 2771
-3.151468e+01 -2.010032e+01 2.655735e+01 2772
1.893762e+01 -1.968081e+01 3.951868e+00 2782
-7.478631e-01 -8.965759e+00 2.662563e+01 2787
-2.710483e+01 5.419477e+00 2.680244e+00 2795
1.346796e+01 -1.032541e+01 2.604733e+01 2800
-7.852419e+00 -2.158453e+01 6.911298e+00 2814
4.312727e+00 1.632082e+01 2.907941e+01 2816
4.660455e+01 1.422910e+01 2.164574e+01 2819
-4.308229e+01 2.232540e+01 3.975180e+00 2836
-3.584921e+01 -8.993205e-01 8.460590e+00 2848
-2.789846e+01 -2.417255e+01 1.612040e+01 2852
4.447519e+01 1.828940e+01 2.276732e+01 2862
-4.496289e+01 1.466332e+00 1.743486e+01 2866
-1.697708e+01 1.044758e+01 6.811596e+00 2868
-2.158183e+01 -2.376722e+01 4.628051e+00 2877
1.457830e+01 2.656937e-01 5.414483e+00 2879
3.906382e+01 2.100735e+01 2.138564e+01 2883
-1.455888e+00 1.678873e+01 6.722927e+00 2906
-1.854606e+01 1.109543e+01 2.634297e+01 2907
3.113118e+01 1.695697e+01 1.953723e+00 2923
-3.590977e+01 -2.106950e+01 1.948404e+01 2926
-3.022060e+01 -1.938078e+00 1.680534e+01 2940
-3.397648e+01 1.629619e+01 1.580174e+01 2943
3.404488e+01 -1.438039e+01 1.953860e+01 2952
2.134094e+01 -5.438508e+00 1.664057e+00 2956
-7.809383e-01 -2.007536e+01 1.100756e+01 2970
1.976945e+01 -1.213933e+01 2.874931e+01 2982
9.606328e+00 9.368680e+00 1.718390e+01 2990
-3.868793e+01 1.352408e+01 1.248562e+01 2995
-2.342005e+01 5.073263e+00 1.289548e+01 2998
-3.220930e+01 2.476082e+01 7.639986e+00 3005
-2.180582e+01 1.791442e+00 1.076820e+00 3008
-1.462650e+00 5.615046e+00 2.773994e+01 3025
-4.433620e+01 5.382730e+00 2.224924e+01 3028
1.286877e+01 2.063987e+01 2.179214e+01 3059
-4.843219e+01 -1.813541e+01 2.301338e+01 3067
-2.083300e+00 -9.578891e+00 1.939999e+01 3081
1.658453e+01 -6.015044e-02 1.874194e+01 3083
-2.695949e+01 -1.218890e+01 1.337268e+01 3089
4.320076e+01 -1.403634e+01 1.860437e+01 3094
-4.198246e+01 -1.739944e+01 1.383771e+01 3103
4.106201e+00 1.213795e+01 1.029119e+01 3104
2.816659e-01 9.120935e+00 2.980066e+01 3110
1.290092e+01 1.651755e+01 6.510471e+00 3123
-4.596744e+01 -1.910512e+00 2.890714e+01 3153
2.451944e+01 -3.968091e+00 5.299589e-01 3156
4.131482e+01 -7.583919e+00 3.924925e+00 3157
-4.530223e+01 -1.469906e+01 1.370178e+00 3198
6.070079e+00 -7.304107e+00 2.385702e+01 3200
3.543381e+01 2.278428e+01 2.585280e+01 3218
-2.839021e+01 1.764214e+01 1.108703e+00 3223
-1.697931e+01 3.122141e+00 1.280752e+01 3244
2.521275e+01 4.799796e+00 1.866602e+01 3248
1.980492e+01 -1.450116e+01 2.521761e+01 3254
4.438954e+01 4.948906e+00 1.162045e+01 3257
4.235405e+01 -4.504572e+00 1.097586e+01 3259
-1.442541e+00 1.926927e+01 2.449752e+01 3262
4.373885e+01 -6.416364e+00 1.829189e+01 3263
2.728389e+01 -1.688973e+01 3.397945e+00 3273
-8.293094e+00 -2.123069e+01 2.141671e+01 3285
3.678612e+01 -1.561708e+01 3.171884e+00 3308
2.259240e+01 1.502081e+01 5.690985e+00 3317
-4.330797e+01 -7.580974e+00 6.353193e-01 3321
1.949544e+01 8.014241e+00 2.567880e+00 3333
2.749311e+01 1.368815e+01 1.444252e+01 3347
1.744135e+01 -9.375674e+00 2.662707e+00 3348
-2.461671e+01 -2.036771e+01 2.555285e+00 3353
-2.602990e+01 -1.981090e+01 2.766051e+01 3357
3.255395e+01 -7.506230e+00 9.948522e+00 3366
-2.580275e+01 1.181534e+01 1.251786e+01 3375
4.698520e+01 9.239550e+00 2.577770e+01 3383
3.751537e+01 -5.702204e+00 1.935358e+00 3398
-4.475269e+01 1.573791e+01 4.482381e+00 3402
-2.775784e+01 1.803573e+01 2.271623e+00 3431
-5.357474e+00 -8.345253e+00 2.029941e+01 3433
2.103721e+01 -1.634812e+01 2.995896e+01 3445
-4.280488e+01 -2.435539e+01 1.794198e+01 3447
2.619714e+01 1.937710e+01 2.454533e+01 3456
-3.365104e+01 -6.884275e+00 2.340959e+01 3460
-4.756009e+01 1.980006e+01 2.077816e+01 3461
3.727601e+01 -2.464312e+01 1.931378e+01 3463
-6.916248e+00 7.653634e+00 2.942774e+01 3464
4.977154e+01 -1.952353e+01 1.109823e+01 3474
-4.298260e+01 -2.142012e+00 1.202987e+01 3484
1.390537e+01 -2.485739e+01 3.225194e+00 3487
1.825462e+01 -7.803644e+00 2.363854e+01 3488
1.921104e+01 2.424265e+00 6.757108e+00 3491
2.880950e+01 -2.890933e+00 1.832844e+01 3492
-1.772990e+01 1.755129e+00 2.771377e+01 3498
-1.413275e+01 2.475015e+01 8.309973e+00 3500
2.208266e+00 -1.194175e+01 1.198559e+01 3503
-3.433514e+00 1.215817e+01 1.934892e+01 3527
-4.660070e+01 -3.093621e+00 7.395604e+00 3532
2.811603e+01 6.087372e-01 7.526686e+00 3535
-4.134514e+01 -1.898921e+01 1.975533e+01 3538
-2.770534e+01 -6.051961e+00 1.857771e+01 3562
4.549213e+01 -1.813552e+01 1.431714e+01 3578
2.007716e+01 8.862465e+00 1.030005e+01 3593
4.570905e+01 3.556654e+00 1.711045e+01 3594
-3.423847e+01 -2.176318e+01 3.795869e+00 3604
-2.408017e+01 -1.623242e+01 1.655541e+01 3612
9.513287e+00 -1.238684e+01 2.635874e+01 3614
3.877904e+01 -7.030532e+00 1.413649e+01 3621
-4.100535e+01 -1.959801e+00 7.628496e+00 3639
-3.571566e+01 1.248133e+01 1.943438e+00 3652
-1.243466e+01 1.956912e+00 1.023575e+01 3659
-2.358214e+01 -1.565222e+01 1.626516e+01 3663
4.764877e+01 2.148632e+01 2.273288e+01 3668
1.335646e+01 2.268402e+01 2.058433e+01 3669
4.178453e+01 -1.388053e+00 2.526300e+00 3675
3.843460e+01 -5.826477e+00 1.029138e+00 3677
-7.986719e+00 -1.748042e+01 3.908589e+00 3679
-3.921606e+01 7.384279e+00 1.260002e+01 3682
-4.321979e+01 -1.295656e+01 1.717286e+01 3685
-3.501935e+01 1.088980e+00 2.892949e+00 3686
3.915827e+01 -1.301109e+01 7.956218e+00 3713
3.912625e+01 -2.701603e+00 2.606092e+01 3717
-2.970575e+01 1.191484e+01 2.277695e+01 3727
-3.011714e+01 -1.324156e+01 2.653445e+01 3729
-3.282431e+01 -2.440700e+01 9.562932e+00 3730
1.929265e+01 2.276591e-01 1.989434e+01 3733
-1.451895e+01 1.252374e+00 5.491917e+00 3734
1.840815e+01 1.892097e+01 2.878569e+01 3736
2.561139e+01 1.050945e+00 7.445408e+00 3741
4.838696e+00 1.050016e+01 2.655296e+01 3747
-1.285087e+01 -1.751417e+01 1.351793e+01 3758
-2.913735e+01 -9.007413e+00 2.698388e+01 3760
-1.096879e+01 -1.845950e+01 1.409103e+01 3762
3.111205e+01 1.842371e+01 2.758043e+01 3771
-3.858749e+01 -5.089567e+00 1.874185e+01 3780
4.033249e+01 2.807457e+00 8.386112e+00 3788
-1.516526e+01 -1.397536e+01 1.462437e+00 3798
1.678436e+01 -1.808298e+01 2.809564e+01 3800
4.257385e+00 -1.379892e+01 1.433835e+01 3801
2.455976e+01 1.831350e+01 1.870665e+01 3804
-2.453752e+01 7.972200e+00 1.388979e+01 3820
5.027285e+00 9.881810e-01 2.758195e+01 3824
3.459124e+01 -6.459523e+00 3.694457e+00 3836
3.812970e+00 -1.278207e+01 3.603197e+00 3844
-4.964672e+01 1.486228e+01 2.562145e+01 3849
-2.562607e+01 -5.491471e+00 2.050255e+01 3854
2.604925e+01 1.414918e+01 2.054592e+01 3856
3.495813e+01 1.837238e+01 1.841398e+00 3857
2.534649e+00 2.003669e+01 1.659924e+01 3858
2.707903e+01 1.402241e+01 1.506426e+01 3859
-2.163277e+01 -2.252363e+01 1.760761e+01 3865
4.173910e+01 1.948640e+01 1.744312e+01 3880
2.718183e+01 -7.121625e+00 8.519619e+00 3889
4.566773e+01 1.761316e+01 2.046071e+01 3894
9.530059e+00 -2.084328e+01 1.717494e+00 3910
-7.517290e-01 -2.012710e+01 2.019978e+01 3911
4.349363e+01 1.372406e+01 2.077765e+01 3919
3.679692e+01 -2.317024e+01 1.821458e+01 3929
3.923970e+01 -6.286860e+00 2.786784e+01 3930
-3.661353e+01 2.059110e+01 2.027834e+01 3935
3.114891e+01 -1.510146e+00 5.788536e+00 3953
1.180720e+01 7.701585e+00 2.475367e+01 3957
2.331908e+01 2.116741e+01 2.635061e+01 3963
2.552901e-01 8.682909e+00 1.209201e+01 3969
2.069684e+01 2.096015e+01 9.609704e-01 3973
-3.698178e+01 -1.397483e+01 1.717865e+01 3984
-2.182073e+01 -9.662257e+00 2.286125e+01 3989
4.902300e+01 -6.918470e+00 2.205008e+01 4010
-3.478012e+01 1.266495e+00 6.251244e+00 4011
3.180496e+01 1.862419e+01 1.142484e+01 4016
9.752062e-01 1.249911e-01 1.738698e+01 4017
-1.948925e+01 -6.933027e+00 1.600459e+01 4020
3.177025e+01 -1.018788e+01 2.852188e+01 4034
-1.170283e+01 7.814276e+00 1.290834e+01 4036
-7.031640e+00 1.130084e+00 4.509352e+00 4037
-1.795917e+01 -5.306593e+00 1.083237e+01 4039
-1.232750e+01 4.614418e+00 2.645527e+01 4046
3.978345e+01 -1.911622e+01 2.849128e+01 4061
4.571521e+01 1.268466e+01 2.132745e+01 4064
1.451100e+01 9.362575e+00 2.563624e+01 4066
-4.300702e+01 -9.306971e+00 7.013703e+00 4079
2.193408e+01 1.336961e+01 6.953914e+00 4080
-4.012622e+01 8.437634e+00 1.097196e+01 4088
-2.938281e+01 -1.974611e+01 9.626990e+00 4104
3.672666e+01 -1.706301e+01 2.142173e+01 4106
-3.406207e+01 -2.442107e+01 5.180253e+00 4130
1.877134e+01 1.846668e+01 1.126896e+01 4144
-3.084013e+01 -3.409247e+00 1.936318e+01 4152
3.754715e+01 1.463118e+01 2.489590e+01 4161
4.348006e+01 1.762158e+01 1.979002e+01 4163
-1.921820e+01 -2.254155e+01 1.771909e+01 4165
3.563498e+01 -5.503999e+00 5.773499e+00 4170
-3.834401e-01 4.798189e+00 1.992324e+01 4172
-1.249991e+01 -3.145620e+00 1.637436e+01 4178
1.336309e+01 1.578569e+01 1.162527e+01 4183
-9.951612e+00 1.165846e+01 2.866998e+01 4184
1.837689e+01 -1.724617e+01 3.994244e+00 4194
-2.319399e+01 6.398800e+00 2.855676e+01 4201
1.238992e+01 -2.324530e+01 1.567394e+01 4209
-1.116569e+01 -2.414438e+01 2.965819e+00 4211
5.576774e+00 2.107791e+01 2.216844e+01 4239
1.448462e+01 1.577948e+01 3.244663e+00 4245
3.100207e+01 5.430535e+00 2.472891e+00 4248
1.867136e+01 -2.079815e+01 1.411427e+01 4252
-2.065369e+01 -3.420812e+00 2.676311e+01 4256
-1.776758e+01 1.575077e+01 6.617721e+00 4265
-5.725207e+00 2.122642e+01 1.981096e+01 4266
1.606889e+01 8.478677e+00 2.738157e+01 4268
3.538979e+01 -1.773967e+01 2.182960e+01 4302
4.370208e+01 1.650425e+01 1.607982e+01 4304
4.817848e+01 -1.083503e+01 3.268670e+00 4306
-4.743920e+01 -1.375793e-01 1.834574e+01 4308
-3.282346e+01 3.140596e+00 3.892686e+00 4314
2.896529e+01 -8.256644e+00 2.463369e+01 4318
2.767392e+01 9.925754e+00 1.822688e+01 4325
4.329093e+01 5.160946e+00 2.544850e+01 4327
-2.466603e+01 -1.548963e+01 2.758606e+01 4332
1.030178e+01 -1.269226e+01 7.877512e+00 4340
-1.514021e+01 5.063904e+00 2.147294e+01 4347
1.859893e+01 1.251954e+01 2.993440e+01 4348
-3.161144e+01 -3.546635e-01 4.671315e-01 4351
1.796459e+00 -7.145432e+00 1.210981e+01 4352
-3.063568e+01 1.115412e+01 2.907164e+01 4353
1.177321e+01 1.760706e+01 2.542872e+00 4359
-2.497013e+01 1.028674e+01 5.319850e+00 4370
3.847573e+01 -9.321884e+00 5.122068e+00 4378
-2.970249e+01 2.010702e+01 1.142410e+01 4389
1.145774e+01 -2.236188e+01 6.711351e+00 4395
-2.985913e-01 1.422815e+01 2.498668e+01 4396
-2.049180e+01 2.146682e+01 2.265118e+01 4402
-4.057670e+00 -2.522458e+00 1.643152e+01 4404
3.690303e+01 -9.699255e+00 3.145949e+00 4408
3.958731e+01 -2.177080e+01 2.228747e+01 4409
1.035836e+01 9.762330e+00 6.070394e-01 4423
-8.979056e+00 -5.735241e+00 2.632279e+01 4432
-3.118451e+01 1.729109e+01 1.663095e+01 4434
-4.090056e+01 3.534468e-01 1.143104e+01 4435
1.345309e+01 1.041007e+01 1.468106e+01 4448
-3.602368e+01 1.263760e+01 2.974072e+01 4453
-4.815569e+01 1.080040e+01 2.225209e+01 4462
-2.338304e+01 2.030546e+01 2.830723e+01 4470
-2.216387e+01 2.291395e+01 4.121258e+00 4480
2.023951e+01 1.927009e+01 1.398261e+01 4481
2.630261e+01 1.090007e+00 2.454735e+01 4485
-1.679847e+01 1.339865e+01 1.640612e+01 4488
8.745762e+00 -1.007201e+01 9.659746e+00 4511
4.766545e+01 -5.280010e+00 1.816139e+01 4512
1.711685e+01 -7.441962e-01 1.907069e+01 4515
2.573924e+01 2.674135e+00 1.063654e+01 4524
-1.265509e+01 -2.422117e+01 1.292776e+01 4534
-8.234020e+00 9.916919e+00 2.494611e+01 4537
-2.175393e+01 1.193657e+01 7.536789e+00 4538
-4.831368e-01 1.923353e+00 1.847229e+01 4541
-3.213189e+01 1.333726e+01 9.364243e+00 4544
4.480034e+01 -3.699576e+00 2.962144e+01 4553
-1.164553e+01 2.246522e+01 1.461121e+01 4578
1.156730e+01 1.231754e+01 1.917186e+01 4584
4.833726e+01 -6.433571e+00 1.178547e+01 4595
-4.610835e+01 6.107170e+00 1.178176e+01 4602
2.379429e+01 -1.199232e+01 8.529212e+00 4606
4.483040e+01 1.824931e+01 2.245733e+00 4614
3.994385e+01 -8.901391e-03 4.823745e+00 4618
2.154909e+00 -3.544515e+00 6.533676e+00 4620
-3.250893e+01 -5.341966e+00 5.420540e-02 4621