Title = Snapshot #10
Variables=X Y Z PartID
Zone I= 6429, F=POINT
-8.005613e+00 2.429976e+01 8.301433e+00 0
6.939108e+00 -1.029474e+01 2.051083e+01 2
2.857042e+00 1.148684e+01 2.811174e+01 8
4.442984e+00 1.879961e+01 2.098319e+01 12
-1.047003e+01 5.617801e+00 9.405071e+00 14
-3.684542e+01 1.985123e+01 1.021967e+00 17
-2.603807e+01 1.276432e+01 1.014609e+01 18
2.580165e+01 2.490062e+01 1.322853e+01 20
-4.094639e+01 -2.222435e+01 1.798907e+01 21
-2.507264e+01 -1.493161e+01 2.648462e+01 23
1.455723e+01 -1.226035e+01 1.399133e+01 31
-1.956897e+01 -1.793269e+00 4.866237e+00 41
3.697969e+00 7.758857e+00 1.176035e+01 42
-2.750707e+01 3.852593e+00 2.459083e+01 45
8.952434e-01 -7.868441e-01 2.906397e+01 46
4.702150e+01 5.530022e+00 2.516454e+01 68
-4.977279e+01 -2.093860e+01 2.785410e+01 74
-3.149403e+01 -1.381555e+01 6.865106e+00 80
1.026509e+00 2.488215e+01 1.286726e+01 82
2.140428e+01 1.302769e+01 7.258222e+00 91
2.473891e+01 -1.147320e+01 2.247444e+01 95
2.662923e+01 1.468846e+01 2.674407e+01 98
-4.115198e+01 5.788728e+00 2.945886e+01 133
3.994965e+01 1.339785e+01 1.587823e+01 135
3.368363e+00 -8.557740e+00 1.574303e+01 137
2.867744e+01 9.265434e+00 1.366260e+01 150
-2.070120e+01 -7.121293e+00 9.605963e+00 158
-2.401540e+01 -2.265425e+01 1.652008e+01 166
2.541063e+01 3.003952e-01 1.514847e+01 171
1.933750e+01 1.198386e+01 4.750969e+00 181
-1.366083e+01 8.823007e+00 1.255295e+01 214
-2.222740e+01 2.241839e+01 8.553581e+00 217
-4.550129e+01 -1.303731e+01 2.420899e+01 219
-7.510846e-01 2.069754e+00 9.345524e+00 233
1.789075e+01 -1.689699e+01 4.890461e+00 257
-4.710641e+01 -2.315531e+01 2.024613e+01 279
4.858828e+00 2.262772e+00 1.831564e+01 295
-4.742795e+01 -1.833236e+01 2.660593e+00 309
2.519114e+01 -2.466556e+01 7.185230e+00 311
3.367974e+01 -1.935100e+01 7.228843e+00 317
2.699515e+00 -3.417614e-01 2.373444e+01 319
5.824846e+00 -1.922400e+01 2.281304e+01 321
-4.616580e+01 1.482696e+01 1.564501e+01 325
-3.364615e+01 -1.072037e+01 7.373051e+00 340
3.692893e+01 2.371382e+01 2.734936e+01 352
3.995811e+01 1.547522e+01 1.665644e+01 363
4.902349e+01 -1.132775e+01 2.763279e+01 364
-1.783726e+01 2.348161e+01 3.522972e+00 373
3.666021e+01 -1.328798e-01 2.833629e+01 375
-2.998528e+01 1.324591e+01 4.255544e+00 396
1.227110e+01 1.006585e+01 1.253656e+01 412
-1.865305e+01 -1.964833e+01 2.558582e+01 425
2.016256e+00 1.388515e+01 3.878150e-01 426
-1.054935e+01 3.438264e-02 7.791113e+00 427
1.601528e+01 1.060611e+01 2.429253e+01 441
1.291881e+01 1.779283e+01 2.653010e+01 443
3.522158e+00 1.715781e+01 2.390758e+01 454
2.035175e+01 1.068976e+01 2.664774e+01 457
-7.519049e+00 2.205761e+01 1.735702e+01 467
2.941175e+01 -1.449691e+01 9.036821e+00 477
3.531570e+01 3.894936e+00 5.645236e+00 504
-1.217367e+01 6.084137e+00 1.328201e+01 505
5.291402e+00 1.297223e+01 2.985286e+01 506
-3.340576e+00 -1.304883e+01 1.032096e+01 510
-1.182473e+01 1.108645e+01 6.639042e+00 521
-1.993853e+01 -1.919505e+01 7.526398e+00 524
-4.202192e+01 7.410480e+00 2.195596e+01 536
1.361074e+01 1.803049e+01 1.016674e+00 537
-1.628721e+01 -1.279624e+01 2.924954e+01 555
4.240413e+01 1.485470e+01 2.702946e+01 558
-1.730757e+01 4.320109e+00 2.966678e+01 559
2.202879e+01 1.317330e+01 2.971022e+01 564
3.536532e+01 1.881866e+01 1.636479e+01 578
-8.244965e+00 2.061418e+01 4.280854e-01 581
-2.903592e+01 1.326950e+01 1.436212e+01 588
3.990760e+01 2.194667e+01 1.467116e+01 591
-6.777855e+00 1.666821e+01 2.581952e+01 594
-1.138507e+01 -2.440821e+01 6.747505e-01 611
-4.859435e+01 -5.182702e+00 1.410965e+01 626
3.776457e+01 1.640155e+01 2.324149e+00 629
-1.384693e+01 2.183634e+01 2.623802e+01 634
-4.412829e+00 -1.469454e+01 6.197726e+00 636
-2.310174e+01 -7.743896e+00 2.407416e+01 640
9.331110e+00 1.886215e+01 2.778088e+01 642
4.645390e+01 1.422354e+01 1.257761e+01 643
2.244351e+01 1.647056e+01 2.516727e+00 650
4.584628e+01 -2.343404e+01 8.588487e+00 657
-1.622176e+01 3.516388e-01 2.109033e+01 661
-4.682961e+01 -8.903232e+00 7.207970e+00 667
6.834765e+00 -1.203087e+01 2.416748e+01 674
2.550989e+01 -1.179367e+01 3.310300e+00 675
2.799558e+00 -1.604610e+01 1.417581e+01 686
3.658948e+01 2.236649e+00 1.953911e+01 687
1.102926e+01 -6.185382e+00 2.950519e+01 688
-3.078536e+01 -1.603283e+01 2.068486e+01 691
4.562709e+01 -8.847130e+00 2.745527e+01 695
-2.921883e+01 -6.229043e+00 9.194548e+00 697
-2.912435e+01 1.758940e+01 1.408518e+01 701
-2.847957e+01 -1.067487e+01 2.606146e+01 702
-2.187433e+01 1.692272e+01 2.679243e+01 704
4.511709e+01 -3.547100e+00 2.763952e+01 706
-2.617081e+01 -2.320287e+01 1.209996e+01 721
4.156402e+01 2.240703e+01 1.025685e+01 723
2.671932e+01 1.530783e+01 2.093855e+01 724
1.338781e+01 1.262100e+01 1.106874e+01 729
-8.939936e+00 -7.856621e+00 2.483367e+01 731
-3.985879e+01 2.444139e+01 2.961055e+01 733
-2.606620e+01 1.523069e+01 1.685672e+01 743
-4.821954e+01 2.261472e+00 2.872283e+01 745
2.764189e+01 1.031642e+01 2.830178e+01 747
-8.244192e+00 -4.839988e+00 3.609861e+00 749
2.835637e+01 -1.109413e+01 1.005968e+01 752
1.563198e+01 1.152710e+01 2.647048e+01 754
-2.935088e+01 1.653429e+00 2.173249e+01 763
3.750615e+01 2.481213e+01 5.023387e+00 764
-6.338725e-01 -1.287764e+01 3.052336e+00 776
-4.417516e+01 -2.372377e+01 4.230200e+00 782
3.184072e+01 -7.733196e+00 1.220377e+01 783
-2.142752e+01 8.671299e+00 6.626025e+00 791
-3.097318e+01 1.777773e+01 2.590672e+01 793
-2.247503e+00 1.739395e+01 2.441729e+01 797
5.364238e+00 -3.794214e+00 2.408345e+01 814
7.228320e+00 -1.229973e+01 2.761346e+01 823
2.971129e+01 1.906792e+00 1.654689e+01 841
-4.790848e+01 -1.803263e+01 3.270802e+00 848
2.286049e+01 2.400797e+00 2.499063e+01 852
-4.903666e-01 -6.834438e+00 3.495305e+00 853
9.851774e+00 5.368168e+00 1.074530e+01 860
1.323329e+01 -6.463125e+00 3.793611e+00 862
1.622542e+01 1.337421e+01 9.201676e-02 865
-4.891751e+00 1.217557e+01 1.497231e+01 871
-1.629762e+01 -1.893198e+01 1.789945e+01 879
5.467010e+00 -1.545409e+01 2.151778e+01 890
-4.012730e+01 2.179426e+01 4.008339e+00 891
-3.843195e+01 2.004241e+01 2.957065e+01 892
-3.674936e+01 1.125311e+01 1.682524e+01 893
-6.910633e+00 1.750910e+00 1.556195e+01 899
1.465799e+01 -2.147858e+01 1.705971e+01 901
3.768771e+01 5.181372e+00 1.287077e+00 903
-3.086052e+01 8.082992e+00 1.452712e+01 918
-4.112777e+01 -4.466757e+00 1.999354e+01 928
-4.825333e-01 2.290984e+01 2.928407e+01 938
-1.527005e+01 2.293576e+01 2.513060e+01 939
-3.302922e+01 -1.156229e+01 9.773108e+00 961
-1.233542e+01 -7.364615e+00 2.947907e+01 971
1.363084e+01 -2.341912e+01 1.617615e+01 974
1.284124e+01 -4.015101e-01 2.448630e+01 980
-7.580367e+00 -1.345420e+01 2.062034e+00 984
2.031814e+01 1.941236e+01 2.769624e+01 994
-3.545783e+01 -8.498868e+00 5.904827e+00 1000
1.562271e+00 8.370615e+00 2.727360e+01 1005
-3.850740e+01 1.015851e+01 2.027942e+01 1010
-1.986246e+01 1.339220e+01 2.949986e+01 1013
-4.278925e+01 5.803664e+00 2.268406e+01 1019
-4.162981e+00 -1.503033e+01 9.988608e-01 1024
-2.859456e+01 -1.207564e+01 2.433771e+01 1033
-7.379436e-01 2.472840e+01 1.842321e+01 1042
4.154507e+01 7.864765e+00 2.251293e+01 1046
6.506205e+00 2.346642e+01 8.510097e+00 1054
-2.838055e+00 -6.928374e+00 2.471620e+01 1056
-3.996059e+01 2.316792e+01 3.813104e+00 1058
1.790129e+01 2.358725e+01 4.024867e+00 1091
2.099282e+01 2.004811e+01 5.011705e+00 1096
-1.594100e+01 -1.095265e+01 2.688903e+01 1100
4.663202e+01 -2.316904e+01 2.073108e+01 1104
4.309880e-01 1.197041e+01 8.554315e+00 1119
4.926390e+01 6.859659e+00 6.953978e+00 1122
1.792316e+01 1.713379e+01 6.551751e+00 1133
-3.103066e+01 1.969001e+01 1.413837e+01 1137
1.540879e+01 1.120961e+01 2.738600e+00 1140
-3.437655e+01 -1.918380e+01 1.279840e+01 1147
1.389015e+01 1.479755e+01 1.456254e+01 1168
2.164531e+01 9.880942e+00 6.612972e+00 1183
-4.831326e+01 -2.204884e+01 1.165944e+01 1193
-2.712490e+01 -1.936292e+01 1.154997e+01 1196
3.977605e+01 6.152175e+00 2.192464e+01 1210
8.828302e-01 1.862854e+01 3.864947e+00 1226
-1.946289e+01 1.573135e+01 2.244610e+01 1230
-4.637331e+01 -1.681831e+01 1.107697e+00 1232
2.309902e+01 9.507660e-01 5.387907e+00 1238
4.355019e+01 -3.753737e+00 1.205018e+01 1242
-8.982120e+00 -9.421299e+00 2.913537e+00 1250
4.664342e+01 -1.549761e+01 1.274592e+01 1252
-5.235903e+00 6.494341e+00 2.969836e+01 1256
-5.094363e+00 1.655866e+01 1.768018e+00 1260
3.085548e+01 5.549835e+00 2.428120e+01 1273
-3.082506e+01 -5.453015e+00 1.999590e+00 1278
2.333379e+01 -9.894445e+00 1.579611e+00 1284
-2.114610e+01 3.575902e+00 2.620566e+01 1286
2.910577e+01 9.972895e+00 1.034239e+00 1292
4.763596e+01 2.325411e+01 7.661516e+00 1299
-6.264580e+00 -8.106429e-01 2.674055e+01 1312
-6.561044e+00 -5.520865e+00 1.889904e+01 1323
-2.750006e+01 -2.435733e+01 2.427249e+01 1326
-2.973067e+01 -2.318680e+01 2.314105e+01 1332
2.383620e+01 -1.983073e+01 2.521422e+01 1333
-4.874800e+01 -3.322429e+00 1.796677e+01 1334
1.865470e+01 -1.948947e+01 1.389265e+01 1337
-2.219052e+01 6.372127e+00 4.583135e+00 1340
-9.960536e+00 -1.258790e+01 2.923232e+01 1342
-4.042460e+00 5.869307e+00 1.793731e+01 1346
2.038146e+01 1.544542e+01 1.654905e+01 1350
6.737314e+00 -6.078525e+00 2.502417e+01 1351
3.184088e+01 1.080897e+00 1.878993e+01 1352
-1.000204e+01 -4.749534e+00 9.897479e+00 1356
4.646556e+01 2.084430e+01 2.932834e+01 1361
2.400427e+00 -6.866159e+00 1.409621e+01 1362
-4.755541e+01 5.149062e+00 1.457099e+01 1374
3.025795e+01 8.258220e+00 1.344312e+01 1375
2.773329e+01 1.055501e+01 1.511638e+01 1382
1.470109e+01 -3.181803e+00 2.102601e+01 1385
-2.755560e+00 -2.270930e+01 1.494259e+01 1395
4.865370e+01 2.246994e+01 1.062951e+01 1396
1.277395e+01 1.217290e+01 1.369318e+01 1415
8.960854e+00 -1.811696e+01 2.022645e+01 1420
-1.146992e+01 1.980754e+01 6.491120e+00 1421
1.603314e+01 -1.716552e+01 2.102441e+01 1423
4.840095e+01 -1.810790e+01 1.813449e+01 1428
1.586274e+01 -1.136595e+01 8.189757e+00 1442
4.620710e+01 -4.071926e+00 9.461014e-01 1446
4.984447e+00 -9.359862e-01 1.680854e+01 1451
6.581875e+00 6.346035e+00 1.224269e+01 1455
3.363850e+01 -9.191735e+00 1.687921e+00 1460
7.747412e+00 -1.549591e+01 1.778520e+01 1470
-2.487361e+01 -1.326825e+00 6.611688e+00 1471
-3.494018e+01 -8.177678e+00 2.119028e+01 1472
3.499431e+01 -9.695593e+00 1.315189e+01 1474
-6.795713e+00 -1.283060e+01 1.400115e+01 1478
-4.623119e+01 1.668683e+01 1.979208e+01 1479
-1.873835e+01 -1.259340e+01 1.318576e+01 1493
2.343109e+01 -1.673579e+01 1.071112e+01 1496
-6.006295e+00 -7.675205e+00 2.967791e+01 1500
-4.223725e+01 1.243317e+01 1.245704e+01 1502
1.495935e+01 1.735369e+01 1.682072e+01 1514
-5.072173e+00 -1.072068e+01 2.633035e+01 1516
3.659795e+01 -3.164333e+00 6.760057e-02 1517
-7.556392e+00 2.025014e+01 1.711430e+01 1518
-1.664033e+01 -1.955910e+01 7.803148e+00 1523
4.060009e+01 -1.954582e+01 2.698580e+01 1531
-8.697736e+00 1.872987e+01 3.274043e+00 1546
2.922480e+01 -2.599360e+00 8.214311e+00 1551
1.187853e+00 1.767588e+01 2.592918e+01 1576
-3.844099e+01 1.331839e+01 1.994268e+01 1580
-4.385367e+01 1.758359e+01 1.775947e+01 1582
4.270669e+01 -1.611255e+01 1.936287e+01 1584
-9.287882e+00 -1.349512e+01 1.852032e+01 1589
-3.587297e+01 2.091969e+01 2.759049e+01 1591
-2.510734e+01 2.397751e+01 2.978013e+01 1595
-9.561168e+00 1.137498e+01 2.584048e+01 1598
1.084156e+01 2.051078e+01 1.582673e+01 1606
7.385241e-01 -8.364327e+00 2.166406e+01 1615
1.784223e+01 -1.294720e+01 4.413009e+00 1617
2.812926e+01 -6.159261e+00 1.081310e+01 1620
-1.117877e+01 1.102432e+01 3.161340e+00 1623
-3.931837e+01 -2.278098e+01 9.252917e+00 1634
1.799645e+01 2.443192e+01 2.315085e+01 1642
-9.550542e+00 -4.084918e+00 1.363347e+01 1655
-4.434384e+01 1.523884e+01 2.882606e+00 1667
3.451359e+00 -2.043940e+01 1.940652e+01 1669
4.522374e+00 -8.304803e+00 1.546895e+01 1687
-4.621340e+01 2.373958e+01 2.228277e+01 1688
4.828566e+01 -1.099830e+01 1.013611e+01 1694
-4.285486e+01 -1.021530e+01 8.362344e+00 1701
2.001238e+01 1.755962e+01 2.164589e+01 1709
-4.967810e+01 6.614500e+00 8.237949e+00 1724
4.302200e+01 -5.810512e+00 2.610346e+01 1727
2.281793e+01 1.037922e+01 2.035292e+01 1735
6.273945e-01 6.702058e+00 9.000082e+00 1743
1.589893e+01 3.625221e+00 1.935010e+01 1744
2.962170e+01 7.255630e+00 3.991413e+00 1752
4.166803e+01 1.360671e+01 1.380803e+01 1754
-4.419645e+01 2.149507e+01 1.747277e+01 1756
5.813142e+00 7.913548e+00 2.073371e+01 1757
-4.090418e+01 1.775611e+01 5.169401e-02 1761
2.125066e+01 -3.636236e+00 7.730689e-01 1763
-4.781289e+01 -3.641822e+00 2.090382e+01 1773
-1.020877e+01 -2.026907e+01 1.590544e+01 1777
3.326762e+01 -1.260380e+01 8.924301e-01 1779
4.117579e+01 -1.142435e+01 2.598749e+01 1782
1.495761e+01 1.431207e+01 1.056242e+01 1784
-3.948846e+01 -8.709496e+00 1.548958e+01 1794
4.768119e+01 2.429168e+01 1.750448e+01 1798
-3.952517e+01 -2.101547e+01 1.808112e+01 1810
4.473289e+01 -2.480140e+01 1.218972e+01 1819
1.074049e+01 -2.422585e+01 1.709166e+01 1833
3.398592e+01 -6.560009e+00 2.510896e+01 1862
-3.132355e+01 3.187104e+00 1.449810e+01 1874
6.874345e+00 1.471051e+01 2.690570e+00 1876
2.998708e+01 -2.469717e+01 1.379912e+01 1877
2.336236e+01 1.914820e+01 1.743513e+01 1888
4.427121e+01 1.579362e+01 2.305904e+00 1895
-1.928318e+01 6.762147e-01 9.975123e+00 1906
4.213427e+01 -1.240206e+01 2.428071e+01 1908
2.325438e+01 -1.398073e+00 5.547235e+00 1912
4.918732e+01 -2.419313e+01 2.241233e+01 1918
-3.558350e+01 1.538225e+01 1.442964e+01 1920
8.265939e+00 1.847387e+01 1.689578e+01 1931
-1.009726e+01 2.476701e+01 7.185603e+00 1953
3.982984e+01 9.941675e+00 2.619738e+01 1959
-4.493104e+00 6.205176e+00 1.836853e+01 1968
-2.325806e+01 2.789845e+00 1.720113e+01 1972
-2.960310e+01 2.211805e+01 2.985001e+00 1973
4.122557e+01 2.346784e+00 1.457723e+01 1984
1.407585e+00 -1.029984e+01 1.626968e+01 1987
4.553455e+01 -2.356806e+01 8.606523e+00 1988
1.631997e+01 4.733076e+00 2.700351e+01 1990
4.193753e+01 1.359164e+01 2.110024e+01 1996
1.499460e+01 1.346191e+01 7.497812e+00 1997
-3.105392e+01 -4.345818e+00 2.328564e+01 2002
8.779820e+00 3.104263e+00 2.508346e+01 2009
3.500528e+00 2.439933e+01 1.856631e+01 2029
2.990391e+01 -3.782856e+00 2.822437e+01 2042
1.491595e+01 1.236786e+01 1.367232e+01 2044
-1.174502e+01 -1.641532e+01 2.626044e+01 2054
5.228350e+00 8.894815e+00 8.776608e+00 2057
-1.981220e+01 7.916585e+00 2.124224e+01 2063
4.685382e+01 1.925795e+01 8.242429e+00 2080
-4.025655e+00 1.060733e+01 7.925049e+00 2091
-3.111489e+01 -9.876931e+00 1.865479e+01 2093
2.685584e+01 7.667627e+00 2.437118e+00 2094
4.970291e+01 3.547014e+00 2.929231e+00 2108
-4.236475e+01 1.949417e+01 2.800754e+01 2109
-1.506884e+01 -6.907947e+00 4.500336e+00 2118
-3.285440e+01 2.498521e+01 6.528943e+00 2126
4.238532e+01 9.624818e+00 4.221728e+00 2128
1.072242e+01 -1.512764e+01 1.771170e+01 2129
-6.146119e+00 2.030003e+01 2.331893e+01 2137
7.892485e+00 4.104591e+00 4.131644e+00 2142
3.878788e+01 1.060550e+01 1.461724e+01 2145
-1.537549e+01 -1.673436e+01 1.073778e+01 2153
3.025916e+01 1.562076e+01 1.412590e+01 2154
-2.217946e+01 1.817066e+01 2.143824e+01 2159
6.864438e+00 -1.464457e+00 1.135860e+01 2166
2.718690e+00 -1.712412e+01 2.941094e+01 2177
-4.889112e+01 6.939591e+00 6.490097e+00 2191
6.194708e+00 2.406138e+01 2.364599e+00 2200
-1.394949e+01 -8.803273e+00 9.646167e+00 2210
-4.311817e+01 8.194845e+00 2.098441e+01 2217
1.114200e+01 -5.996588e+00 2.392000e+01 2227
4.352076e+01 4.651965e+00 2.836630e+01 2228
5.580153e-01 -1.219255e+01 2.416481e+01 2233
3.082996e+01 2.754001e+00 4.472276e+00 2234
3.414891e+01 -1.946152e+01 2.359101e+01 2238
-3.806708e+01 1.021968e+01 2.160752e+01 2240
-4.078383e+01 -1.222073e+01 1.877565e+01 2244
-1.339145e+01 1.739909e+01 8.716670e+00 2252
-4.815596e+01 -1.142665e+01 2.992653e+00 2253
3.211217e+01 -2.460346e-01 6.757442e+00 2270
1.420593e+01 2.105700e+01 2.681394e+01 2287
6.577459e+00 6.897712e+00 1.349378e+01 2292
-3.766286e+01 1.552383e+01 2.713613e+00 2297
-2.424091e+01 -7.462114e+00 2.913271e+01 2307
2.338009e+01 9.924614e+00 8.534296e+00 2314
2.947438e+01 1.013956e+01 1.924793e+01 2334
4.778208e+01 -1.081403e+01 1.825894e+01 2347
7.457442e+00 6.861400e+00 2.725936e+01 2357
-1.737378e+01 2.429826e+01 2.773745e+01 2361
-2.609113e+01 9.765986e+00 2.655970e+01 2372
-2.587474e+01 -1.270945e+01 2.293898e+00 2386
-6.603532e-01 2.236483e+01 2.304448e+01 2399
3.343785e+01 -8.585729e+00 3.316605e+00 2408
5.117499e+00 2.336963e+01 1.634478e+00 2425
4.169691e+01 -1.966522e+01 1.847685e+01 2426
2.167934e+01 -3.874335e+00 2.939796e+01 2428
-3.766575e+01 -8.972461e+00 1.911337e+01 2442
1.804732e+01 2.126745e+01 2.457391e+01 2451
-1.537293e+01 -1.651774e+01 2.391072e+01 2452
-1.793438e+01 -1.813490e+01 2.179928e+01 2454
-9.278685e+00 2.470155e+01 3.395298e+00 2461
3.963675e+01 -1.766136e+01 2.673781e+01 2494
-3.116049e+01 -4.951292e+00 2.036428e+01 2520
4.758205e+01 -1.477951e+01 1.224154e+00 2527
-3.038217e+01 1.848501e+00 2.275325e+00 2528
1.870002e+01 -1.884051e+01 2.584351e+01 2542
-3.521396e+01 1.081212e+01 1.959227e+01 2544
-1.958481e+01 1.216787e+01 2.000841e+01 2556
-1.844021e+01 -2.613558e+00 2.752785e+01 2566
-7.164584e+00 -1.171030e+01 4.174967e+00 2571
-4.353269e+01 -2.481606e+01 1.184058e+01 2584
-1.202529e+01 9.070621e+00 1.515033e+01 2586
1.910854e+01 -8.934595e+00 2.354016e+01 2587
-4.163557e+01 2.249692e+01 2.918276e+01 2594
3.961659e+01 -3.941988e+00 1.444133e+01 2595
-6.218420e+00 1.554137e+01 7.080068e+00 2597
5.533988e+00 1.721841e+01 1.217868e+01 2598
-1.388607e+01 -2.357671e+01 2.980185e+00 2607
-2.413334e+01 -2.187866e+01 2.571120e+01 2633
4.751893e+01 1.210618e+01 2.223909e+01 2634
2.208680e+01 2.383264e+01 2.650467e+01 2637
1.884919e+01 2.240207e+01 1.134906e+01 2640
1.428750e+01 -1.324909e+01 1.070142e+01 2644
-1.788705e+01 -8.914220e+00 4.932223e+00 2646
-1.133624e+01 -1.669577e+01 2.664807e+01 2651
-4.983758e+01 -1.446163e+01 1.487931e+01 2653
-4.482444e+01 4.448388e+00 1.693619e+01 2670
-2.606289e+01 2.458169e+01 3.748919e+00 2691
-7.153525e+00 9.613246e+00 3.615560e+00 2704
-2.012583e+01 -1.988274e+01 1.862497e+01 2710
3.899711e+01 -5.172054e+00 2.680093e+01 2713
4.604468e+01 -1.733901e+01 2.150185e+01 2715
2.204413e+01 -5.576656e-01 7.322375e-01 2717
2.887194e+01 1.586821e+01 2.281174e+01 2731
3.835479e+01 -1.371411e+01 2.725411e+01 2734
2.825545e+01 -1.651815e+01 3.221335e-02 2739
-2.825577e+01 6.393700e+00 1.827217e+01 2752
-4.554025e+01 6.682439e+00 1.421048e+01 2760
-2.345795e+01 -2.217541e+01 2.767424e+01 2765
4.105340e+01 1.076634e+01 2.439895e+00 2769
3.608467e+01 9.019420e+00 2.536235e+01 2771
-3.025472e+01 -2.032573e+01 2.676773e+01 2772
1.971387e+01 -1.955837e+01 3.901701e+00 2782
-3.193411e-02 -9.186169e+00 2.699689e+01 2787
-2.650518e+01 5.343311e+00 2.497940e+00 2795
1.428800e+01 -1.023645e+01 2.586201e+01 2800
-6.767827e+00 -2.180832e+01 7.073815e+00 2814
5.568447e+00 1.636833e+01 2.895321e+01 2816
4.745406e+01 1.424915e+01 2.194280e+01 2819
-4.221398e+01 2.236591e+01 4.006643e+00 2836
-3.557737e+01 -9.693361e-01 8.503585e+00 2848
-2.799872e+01 -2.452016e+01 1.600499e+01 2852
4.549201e+01 1.844277e+01 2.289188e+01 2862
-4.417602e+01 1.627290e+00 1.821170e+01 2866
-1.610954e+01 1.032459e+01 6.595980e+00 2868
-2.110165e+01 -2.382447e+01 4.432030e+00 2877
1.505084e+01 4.447106e-01 5.299522e+00 2879
3.992009e+01 2.107651e+01 2.156261e+01 2883
-8.103948e-01 1.659762e+01 6.726250e+00 2906
-1.762684e+01 1.101135e+01 2.611188e+01 2907
3.158686e+01 1.715165e+01 1.928909e+00 2923
-3.482735e+01 -2.109882e+01 2.002127e+01 2926
-2.949150e+01 -1.702885e+00 1.635921e+01 2940
-3.353425e+01 1.649152e+01 1.611253e+01 2943
3.494620e+01 -1.425426e+01 1.953333e+01 2952
2.191605e+01 -5.401378e+00 1.702296e+00 2956
-8.051262e-02 -2.026442e+01 1.097300e+01 2970
2.057863e+01 -1.207124e+01 2.868818e+01 2982
1.014817e+01 9.628025e+00 1.703257e+01 2990
-3.745928e+01 1.369637e+01 1.289808e+01 2995
-2.309909e+01 5.140322e+00 1.263415e+01 2998
-3.189040e+01 2.484603e+01 7.680194e+00 3005
-2.099572e+01 1.797560e+00 1.021378e+00 3008
-4.608696e-01 5.647848e+00 2.800827e+01 3025
-4.372289e+01 5.518914e+00 2.269730e+01 3028
1.338237e+01 2.034364e+01 2.197164e+01 3059
-4.848099e+01 -1.809857e+01 2.324159e+01 3067
-1.444034e+00 -9.574388e+00 1.969040e+01 3081
1.700742e+01 -1.840307e-02 1.883918e+01 3083
-2.669141e+01 -1.181886e+01 1.287208e+01 3089
4.404241e+01 -1.408279e+01 1.870700e+01 3094
-4.125778e+01 -1.755346e+01 1.420552e+01 3103
4.662777e+00 1.209823e+01 1.009132e+01 3104
1.480606e+00 9.048043e+00 2.993940e+01 3110
1.340487e+01 1.657977e+01 6.686529e+00 3123
-4.518759e+01 -1.816023e+00 2.918509e+01 3153
2.483446e+01 -3.778374e+00 5.282427e-01 3156
4.184001e+01 -7.743732e+00 3.872253e+00 3157
-4.497250e+01 -1.502558e+01 1.480493e+00 3198
6.644406e+00 -7.226562e+00 2.406095e+01 3200
3.621585e+01 2.277455e+01 2.604513e+01 3218
-2.784416e+01 1.736153e+01 1.148733e+00 3223
-1.645204e+01 2.849184e+00 1.284948e+01 3244
2.583484e+01 4.892126e+00 1.885024e+01 3248
2.049438e+01 -1.440263e+01 2.515498e+01 3254
4.507223e+01 4.811133e+00 1.165419e+01 3257
4.268814e+01 -4.383379e+00 1.095624e+01 3259
-8.771834e-01 1.939480e+01 2.484656e+01 3262
4.423443e+01 -6.094068e+00 1.836691e+01 3263
2.773806e+01 -1.688808e+01 3.455424e+00 3273
-7.834352e+00 -2.117032e+01 2.165806e+01 3285
3.737009e+01 -1.570629e+01 3.194480e+00 3308
2.303607e+01 1.512988e+01 5.636528e+00 3317
-4.290380e+01 -7.549947e+00 6.392588e-01 3321
1.994397e+01 8.250120e+00 2.642506e+00 3333
2.832729e+01 1.363888e+01 1.444040e+01 3347
1.786713e+01 -9.512421e+00 2.732426e+00 3348
-2.412410e+01 -2.032441e+01 2.691126e+00 3353
-2.493265e+01 -1.987029e+01 2.772115e+01 3357
3.308868e+01 -7.423965e+00 9.977132e+00 3366
-2.542693e+01 1.183783e+01 1.211999e+01 3375
4.796316e+01 9.149632e+00 2.618100e+01 3383
3.803715e+01 -5.818915e+00 1.872086e+00 3398
-4.404457e+01 1.587116e+01 4.706653e+00 3402
-4.970789e+01 1.089547e+01 2.788498e+01 3415
-2.719242e+01 1.784560e+01 2.121711e+00 3431
-4.809017e+00 -8.271272e+00 2.042777e+01 3433
2.200529e+01 -1.618689e+01 2.986825e+01 3445
-4.210087e+01 -2.430871e+01 1.828814e+01 3447
2.703133e+01 1.907790e+01 2.422817e+01 3456
-3.269981e+01 -7.299769e+00 2.334100e+01 3460
-4.713174e+01 1.987897e+01 2.118839e+01 3461
3.835674e+01 -2.449113e+01 1.930234e+01 3463
-5.938468e+00 7.721897e+00 2.946906e+01 3464
-4.205902e+01 -2.064504e+00 1.234645e+01 3484
1.455104e+01 -2.472090e+01 3.267097e+00 3487
1.909296e+01 -7.711096e+00 2.349818e+01 3488
1.980302e+01 2.343881e+00 6.888108e+00 3491
2.959776e+01 -2.916316e+00 1.826673e+01 3492
-1.684722e+01 1.874369e+00 2.762700e+01 3498
-1.322754e+01 2.494639e+01 8.474854e+00 3500
2.758019e+00 -1.203788e+01 1.203162e+01 3503
-2.717931e+00 1.240259e+01 1.951394e+01 3527
-4.585366e+01 -3.341776e+00 7.563654e+00 3532
2.859995e+01 5.041094e-01 7.476095e+00 3535
-4.048709e+01 -1.885280e+01 1.975382e+01 3538
-2.722662e+01 -6.136199e+00 1.832325e+01 3562
4.585242e+01 -1.806022e+01 1.437923e+01 3578
2.057050e+01 8.846596e+00 1.027439e+01 3593
4.653163e+01 3.689869e+00 1.718787e+01 3594
-3.372388e+01 -2.187684e+01 4.015091e+00 3604
-2.371053e+01 -1.633759e+01 1.597283e+01 3612
1.029374e+01 -1.230117e+01 2.604101e+01 3614
3.920837e+01 -6.914753e+00 1.415147e+01 3621
-4.043583e+01 -1.926198e+00 7.892630e+00 3639
-3.506581e+01 1.234075e+01 1.932472e+00 3652
-1.175333e+01 1.705421e+00 1.040091e+01 3659
-2.281316e+01 -1.594513e+01 1.562712e+01 3663
4.880168e+01 2.171738e+01 2.266969e+01 3668
1.411992e+01 2.253532e+01 2.042821e+01 3669
4.228412e+01 -1.461152e+00 2.410004e+00 3675
3.896682e+01 -5.724713e+00 1.118176e+00 3677
-7.184073e+00 -1.741303e+01 3.945489e+00 3679
-3.835083e+01 7.265299e+00 1.308510e+01 3682
-4.255875e+01 -1.299612e+01 1.751745e+01 3685
-3.468811e+01 1.032818e+00 2.782150e+00 3686
3.956946e+01 -1.296588e+01 8.020438e+00 3713
3.994514e+01 -2.754353e+00 2.608143e+01 3717
-2.821759e+01 1.182081e+01 2.280221e+01 3727
-2.903565e+01 -1.300683e+01 2.687095e+01 3729
-3.211691e+01 -2.438977e+01 9.577290e+00 3730
1.972904e+01 8.517436e-02 1.994426e+01 3733
-1.351992e+01 1.620434e+00 5.803794e+00 3734
1.930855e+01 1.863118e+01 2.887622e+01 3736
2.598959e+01 9.708487e-01 7.440729e+00 3741
5.808392e+00 1.070249e+01 2.674072e+01 3747
-1.199792e+01 -1.720663e+01 1.374458e+01 3758
-2.800411e+01 -8.921636e+00 2.705778e+01 3760
-1.009844e+01 -1.832454e+01 1.417376e+01 3762
3.203520e+01 1.835888e+01 2.734891e+01 3771
-3.784323e+01 -4.970961e+00 1.937928e+01 3780
4.085695e+01 2.827107e+00 8.366909e+00 3788
-1.446851e+01 -1.390523e+01 1.524575e+00 3798
1.772379e+01 -1.798376e+01 2.801376e+01 3800
4.760255e+00 -1.396272e+01 1.438793e+01 3801
2.516837e+01 1.852029e+01 1.856292e+01 3804
-2.427609e+01 8.129269e+00 1.349649e+01 3820
5.589799e+00 8.644786e-01 2.796167e+01 3824
3.508014e+01 -6.476084e+00 3.624811e+00 3836
4.483056e+00 -1.276702e+01 3.674478e+00 3844
-4.849679e+01 1.467974e+01 2.557789e+01 3849
-2.491792e+01 -5.358600e+00 2.024803e+01 3854
2.693992e+01 1.421797e+01 2.037476e+01 3856
3.538665e+01 1.855763e+01 1.805558e+00 3857
2.976034e+00 2.021938e+01 1.672385e+01 3858
2.793362e+01 1.411422e+01 1.505888e+01 3859
-2.093648e+01 -2.274140e+01 1.735505e+01 3865
4.243519e+01 1.932629e+01 1.756073e+01 3880
2.778201e+01 -7.016204e+00 8.530099e+00 3889
4.667114e+01 1.760019e+01 2.082618e+01 3894
1.022311e+01 -2.074059e+01 1.710940e+00 3910
-1.233200e-01 -2.038072e+01 2.046740e+01 3911
4.444022e+01 1.359723e+01 2.103997e+01 3919
3.766409e+01 -2.301023e+01 1.831910e+01 3929
4.017874e+01 -6.134474e+00 2.782162e+01 3930
-3.601618e+01 2.081667e+01 2.052640e+01 3935
3.159088e+01 -1.671705e+00 5.696514e+00 3953
1.232339e+01 7.353058e+00 2.473269e+01 3957
2.420334e+01 2.097384e+01 2.635301e+01 3963
7.270298e-01 8.572527e+00 1.239756e+01 3969
2.140417e+01 2.071790e+01 9.451559e-01 3973
-3.690437e+01 -1.390085e+01 1.776709e+01 3984
-2.098340e+01 -9.560923e+00 2.251517e+01 3989
4.983283e+01 -6.990229e+00 2.191150e+01 4010
-3.452374e+01 1.102462e+00 6.163369e+00 4011
3.251674e+01 1.860845e+01 1.150773e+01 4016
1.851623e+00 -9.298682e-02 1.764788e+01 4017
-1.901365e+01 -6.937393e+00 1.553067e+01 4020
3.245507e+01 -1.003575e+01 2.862310e+01 4034
-1.093255e+01 7.842642e+00 1.331387e+01 4036
-6.251285e+00 8.609907e-01 4.499721e+00 4037
-1.742896e+01 -5.625656e+00 1.043080e+01 4039
-1.128716e+01 4.563195e+00 2.655891e+01 4046
4.069043e+01 -1.891911e+01 2.859466e+01 4061
4.654907e+01 1.253058e+01 2.163487e+01 4064
1.518413e+01 9.280151e+00 2.563829e+01 4066
-4.245215e+01 -9.203702e+00 7.185087e+00 4079
2.248905e+01 1.344898e+01 6.998606e+00 4080
-3.940778e+01 8.275771e+00 1.144283e+01 4088
-2.909946e+01 -2.019008e+01 9.765548e+00 4104
3.745990e+01 -1.690775e+01 2.158489e+01 4106
-3.339170e+01 -2.466339e+01 5.275771e+00 4130
1.944717e+01 1.849755e+01 1.141609e+01 4144
-2.990959e+01 -3.509172e+00 1.888780e+01 4152
3.850365e+01 1.460628e+01 2.473367e+01 4161
4.444024e+01 1.763140e+01 2.003251e+01 4163
-1.841828e+01 -2.286864e+01 1.732478e+01 4165
3.611910e+01 -5.454803e+00 5.750638e+00 4170
6.326781e-01 4.653260e+00 2.000729e+01 4172
-1.173652e+01 -3.090163e+00 1.621008e+01 4178
1.387927e+01 1.581271e+01 1.174139e+01 4183
-8.882271e+00 1.159509e+01 2.869851e+01 4184
1.903578e+01 -1.693558e+01 3.796984e+00 4194
-2.223369e+01 6.528584e+00 2.836720e+01 4201
1.316290e+01 -2.329839e+01 1.547783e+01 4209
-1.040054e+01 -2.405506e+01 3.127966e+00 4211
6.551278e+00 2.125076e+01 2.237780e+01 4239
1.505648e+01 1.586629e+01 3.352085e+00 4245
3.161377e+01 5.534555e+00 2.359883e+00 4248
1.917130e+01 -2.056648e+01 1.418174e+01 4252
-1.977319e+01 -3.346134e+00 2.654123e+01 4256
-1.661044e+01 1.553141e+01 6.745752e+00 4265
-5.099009e+00 2.128301e+01 2.018070e+01 4266
1.674978e+01 8.515058e+00 2.712628e+01 4268
3.608674e+01 -1.766790e+01 2.205865e+01 4302
4.429944e+01 1.632354e+01 1.624979e+01 4304
4.883962e+01 -1.084536e+01 3.228640e+00 4306
-4.604194e+01 1.801611e-01 1.892541e+01 4308
-3.241673e+01 3.033288e+00 3.772399e+00 4314
2.983472e+01 -8.203607e+00 2.461738e+01 4318
2.854645e+01 9.765118e+00 1.799949e+01 4325
4.444178e+01 4.976920e+00 2.521578e+01 4327
-2.344474e+01 -1.542911e+01 2.731677e+01 4332
1.097359e+01 -1.260139e+01 7.967674e+00 4340
-1.463683e+01 4.848443e+00 2.164745e+01 4347
1.964104e+01 1.208348e+01 2.989221e+01 4348
-3.126647e+01 -3.232417e-01 4.368255e-01 4351
2.744880e+00 -6.992024e+00 1.220155e+01 4352
-2.945329e+01 1.101251e+01 2.899071e+01 4353
1.229980e+01 1.748202e+01 2.676758e+00 4359
-2.461789e+01 1.021153e+01 5.177667e+00 4370
3.904146e+01 -9.240618e+00 5.070824e+00 4378
-2.938558e+01 2.002441e+01 1.121904e+01 4389
1.193606e+01 -2.219203e+01 6.666708e+00 4395
7.487835e-01 1.429214e+01 2.492986e+01 4396
-1.967625e+01 2.146315e+01 2.234801e+01 4402
-3.234578e+00 -2.437908e+00 1.662624e+01 4404
3.744947e+01 -9.660286e+00 3.101917e+00 4408
4.054581e+01 -2.157821e+01 2.223491e+01 4409
1.056083e+01 9.817383e+00 6.094246e-01 4423
-8.325824e+00 -5.522749e+00 2.641361e+01 4432
-3.063095e+01 1.689410e+01 1.676579e+01 4434
-4.046134e+01 5.408421e-01 1.175705e+01 4435
1.404105e+01 1.054057e+01 1.463407e+01 4448
-3.477289e+01 1.261672e+01 2.964267e+01 4453
-4.762092e+01 1.050325e+01 2.262391e+01 4462
-2.234527e+01 2.019814e+01 2.807979e+01 4470
-2.145607e+01 2.309199e+01 4.055047e+00 4480
2.069729e+01 1.942943e+01 1.407657e+01 4481
2.701907e+01 1.337541e+00 2.443240e+01 4485
-1.613021e+01 1.337842e+01 1.615174e+01 4488
9.430108e+00 -9.831481e+00 9.585720e+00 4511
4.832581e+01 -5.198914e+00 1.787149e+01 4512
1.752333e+01 -7.816857e-01 1.921485e+01 4515
2.627253e+01 2.661711e+00 1.065575e+01 4524
-1.195260e+01 -2.379807e+01 1.257099e+01 4534
-7.144680e+00 9.986186e+00 2.473110e+01 4537
-2.119310e+01 1.209374e+01 7.307072e+00 4538
4.043338e-01 1.860767e+00 1.873708e+01 4541
-3.186657e+01 1.332689e+01 9.365325e+00 4544
4.582622e+01 -3.673080e+00 2.954200e+01 4553
-1.088844e+01 2.217041e+01 1.487923e+01 4578
1.209435e+01 1.218828e+01 1.922372e+01 4584
4.879316e+01 -6.246523e+00 1.166892e+01 4595
-4.524373e+01 5.983220e+00 1.232052e+01 4602
2.447050e+01 -1.189823e+01 8.605176e+00 4606
4.515671e+01 1.847612e+01 2.335255e+00 4614
4.046276e+01 -1.098732e-01 4.799784e+00 4618
2.759936e+00 -3.370907e+00 6.679506e+00 4620
-3.245703e+01 -5.307596e+00 4.223206e-02 4621
3.507763e+01 -1.408383e+01 7.940240e+00 4623