Title = Snapshot #25
Variables=X Y Z PartID
Zone I= 6422, F=POINT
-5.365612e+00 2.496019e+01 1.000263e+01 0
8.627009e+00 -1.091844e+01 2.044325e+01 2
8.503577e+00 1.111176e+01 2.784369e+01 8
7.496916e+00 2.076653e+01 2.159330e+01 12
-7.292151e+00 6.074965e+00 9.667515e+00 14
-3.423951e+01 1.944066e+01 9.523394e-01 17
-2.383628e+01 1.255405e+01 8.920499e+00 18
-3.673969e+01 -2.249745e+01 1.971895e+01 21
-2.025910e+01 -1.462945e+01 2.551996e+01 23
1.763403e+01 -1.192764e+01 1.474805e+01 31
-1.710441e+01 -6.629425e-01 4.282136e+00 41
5.813510e+00 7.334091e+00 1.289902e+01 42
-2.308851e+01 4.991519e+00 2.238216e+01 45
-4.553004e+01 -2.129341e+01 2.699229e+01 74
-2.951679e+01 -1.307122e+01 7.747600e+00 80
2.598144e+00 2.403177e+01 1.299126e+01 82
-4.939606e+01 -1.498576e+01 2.513868e+01 83
2.423637e+01 1.330486e+01 7.325389e+00 91
2.840523e+01 -1.156477e+01 2.227779e+01 95
3.130353e+01 1.338910e+01 2.550814e+01 98
4.388607e+01 1.232018e+01 1.684354e+01 135
6.036900e+00 -8.272682e+00 1.625979e+01 137
3.228987e+01 8.911764e+00 1.329387e+01 150
-1.872100e+01 -6.051096e+00 8.556760e+00 158
-2.290216e+01 -2.367108e+01 1.579994e+01 166
2.835540e+01 8.607831e-01 1.517281e+01 171
2.243607e+01 1.286761e+01 5.205462e+00 181
-1.053067e+01 6.666756e+00 1.124857e+01 214
-1.979166e+01 2.108374e+01 6.967310e+00 217
-4.183519e+01 -1.420281e+01 2.544744e+01 219
1.052429e+00 2.536524e+00 1.020601e+01 233
-4.659908e+01 1.596289e+01 8.962094e+00 234
2.136513e+01 -1.538606e+01 4.994077e+00 257
-4.442633e+01 -2.005261e+01 2.064436e+01 279
7.906802e+00 2.521222e+00 1.958968e+01 295
-4.478614e+01 -1.812275e+01 3.680745e+00 309
3.652785e+01 -1.926772e+01 6.732982e+00 317
6.999963e+00 5.019730e-01 2.539922e+01 319
8.509931e+00 -1.876930e+01 2.425392e+01 321
-4.274514e+01 1.499084e+01 1.802897e+01 325
-4.980173e+01 -1.280066e+01 1.559273e+00 329
3.356641e+01 2.061772e+01 2.982102e+01 337
-3.202104e+01 -1.103264e+01 7.788950e+00 340
4.107144e+01 2.369683e+01 2.828739e+01 352
4.442721e+01 1.467722e+01 1.738303e+01 363
-1.377784e+01 2.353143e+01 3.363195e+00 373
4.185484e+01 3.687918e-01 2.889642e+01 375
-2.694202e+01 1.235968e+01 4.444245e+00 396
1.536824e+01 1.033512e+01 1.179656e+01 412
-1.445249e+01 -1.953841e+01 2.427449e+01 425
3.994285e+00 1.412470e+01 5.007838e-01 426
-5.434756e+00 1.568238e-01 8.629251e+00 427
1.933871e+01 1.046161e+01 2.372335e+01 441
1.794718e+01 1.622932e+01 2.681221e+01 443
8.843651e+00 1.932636e+01 2.519127e+01 454
2.381683e+01 1.019888e+01 2.581968e+01 457
-3.477628e+00 2.249635e+01 1.850677e+01 467
3.357666e+01 -1.484047e+01 8.318284e+00 477
3.726622e+01 3.743903e+00 4.964315e+00 504
-9.227625e+00 5.804881e+00 1.475642e+01 505
1.151877e+01 1.352710e+01 2.960551e+01 506
1.772470e+00 -1.333427e+01 1.076460e+01 510
-7.966620e+00 1.082497e+01 7.987935e+00 521
-1.753320e+01 -2.053231e+01 8.354065e+00 524
-3.740157e+01 6.602982e+00 2.466484e+01 536
1.562433e+01 1.871841e+01 1.851930e+00 537
-1.184644e+01 -1.126510e+01 2.845869e+01 555
4.681377e+01 1.455415e+01 2.752802e+01 558
-1.285491e+01 5.006056e+00 2.927351e+01 559
2.673513e+01 1.275711e+01 2.923176e+01 564
3.836604e+01 1.873565e+01 1.650578e+01 578
-6.669968e+00 2.060699e+01 4.138267e-01 581
-4.745191e+01 -1.849860e-01 1.630817e+01 582
-2.797492e+01 1.385793e+01 1.370294e+01 588
4.360847e+01 2.157001e+01 1.531518e+01 591
-2.994003e+00 1.580538e+01 2.717233e+01 594
-8.951338e+00 -2.379769e+01 8.319744e-01 611
-4.360213e+01 -6.817477e+00 1.481381e+01 626
3.972297e+01 1.727009e+01 2.572786e+00 629
-9.328323e+00 2.280789e+01 2.647655e+01 634
-4.535305e-01 -1.407373e+01 6.507449e+00 636
-1.951818e+01 -7.878086e+00 2.250924e+01 640
1.376690e+01 2.126933e+01 2.958954e+01 642
4.959620e+01 1.389430e+01 1.273597e+01 643
2.502093e+01 1.601022e+01 2.066329e+00 650
4.790500e+01 -2.376047e+01 9.534190e+00 657
-1.342603e+01 -1.690727e+00 2.114585e+01 661
-4.291365e+01 -7.776808e+00 8.551586e+00 667
1.073450e+01 -1.188970e+01 2.341012e+01 674
2.818981e+01 -1.215971e+01 3.014546e+00 675
5.083121e+00 -1.543068e+01 1.410210e+01 686
3.996436e+01 1.230774e+00 1.974796e+01 687
1.697130e+01 -5.892712e+00 2.793523e+01 688
-2.541220e+01 -1.356210e+01 2.131564e+01 691
-2.770148e+01 -6.494594e+00 8.753972e+00 697
-2.783316e+01 1.601667e+01 1.317577e+01 701
-2.342869e+01 -1.004790e+01 2.668926e+01 702
-1.625281e+01 1.694351e+01 2.552238e+01 704
4.973360e+01 -3.425969e+00 2.738102e+01 706
4.436329e+01 2.194436e+01 1.062106e+01 723
3.094629e+01 1.551670e+01 1.988590e+01 724
1.559191e+01 1.263685e+01 1.117150e+01 729
-6.117899e+00 -7.921144e+00 2.491820e+01 731
-3.501522e+01 2.488838e+01 2.977970e+01 733
-4.830173e+01 -2.169021e+01 8.254329e+00 739
-2.433553e+01 1.489768e+01 1.578605e+01 743
3.279461e+01 1.065596e+01 2.727998e+01 747
-5.710264e+00 -6.626408e+00 4.079781e+00 749
3.080554e+01 -1.176703e+01 1.060881e+01 752
1.945270e+01 1.100422e+01 2.752291e+01 754
-2.410164e+01 9.682210e-01 2.014003e+01 763
1.785892e+00 -1.210346e+01 3.320822e+00 776
-3.904230e+01 -2.417853e+01 4.960989e+00 782
3.477115e+01 -7.704233e+00 1.241880e+01 783
-1.832171e+01 7.280597e+00 7.124875e+00 791
-2.596466e+01 1.804970e+01 2.448791e+01 793
1.177987e+00 1.674825e+01 2.566727e+01 797
8.378326e+00 -3.896398e+00 2.603119e+01 814
1.288111e+01 -1.083161e+01 2.732825e+01 823
3.223713e+01 1.450850e+00 1.697110e+01 841
-4.475429e+01 -1.816596e+01 4.394190e+00 848
2.587427e+01 3.957842e+00 2.580533e+01 852
2.572093e+00 -6.751872e+00 4.424461e+00 853
1.243659e+01 6.363777e+00 1.114212e+01 860
1.626276e+01 -5.795610e+00 3.565226e+00 862
1.667187e+01 1.338165e+01 1.047692e-01 865
-1.089811e+00 1.234889e+01 1.530807e+01 871
-1.186936e+01 -1.957173e+01 1.794579e+01 879
7.633366e+00 -1.632692e+01 2.190221e+01 890
-3.639307e+01 2.154964e+01 4.185659e+00 891
-3.310996e+01 1.967239e+01 2.936534e+01 892
-3.186684e+01 1.125239e+01 1.904446e+01 893
-2.372741e+00 1.536783e+00 1.748314e+01 899
1.782731e+01 -2.289280e+01 1.602899e+01 901
3.978580e+01 5.399162e+00 1.243466e+00 903
-2.780569e+01 9.082559e+00 1.619395e+01 918
-3.754635e+01 -5.462273e+00 2.258134e+01 928
-1.083357e+01 2.405550e+01 2.529845e+01 939
-3.150123e+01 -1.151723e+01 1.151625e+01 961
-7.895652e+00 -7.200964e+00 2.974481e+01 971
-1.877248e+01 -5.632673e+00 2.969712e+01 973
1.668271e+01 -2.461016e+01 1.510209e+01 974
1.542489e+01 2.979734e-01 2.289783e+01 980
-5.088771e+00 -1.372004e+01 2.069010e+00 984
2.482564e+01 1.812409e+01 2.745455e+01 994
-3.340054e+01 -8.873143e+00 6.260442e+00 1000
6.795519e+00 9.411440e+00 2.920331e+01 1005
-3.279070e+01 9.497048e+00 2.222992e+01 1010
-1.475481e+01 1.316123e+01 2.837636e+01 1013
-3.872265e+01 6.223246e+00 2.524657e+01 1019
-1.919306e+00 -1.501003e+01 1.407172e+00 1024
-2.331426e+01 -1.024468e+01 2.439107e+01 1033
4.675988e+01 7.157087e+00 2.311920e+01 1046
9.903440e+00 2.251390e+01 8.986516e+00 1054
6.576850e-01 -7.498213e+00 2.665234e+01 1056
-3.661214e+01 2.345520e+01 3.982538e+00 1058
-4.855382e+01 2.844599e+00 4.357118e+00 1073
2.148626e+01 2.266603e+01 4.704487e+00 1091
2.410914e+01 1.967459e+01 5.413587e+00 1096
-1.063505e+01 -1.135925e+01 2.553450e+01 1100
2.978652e+00 1.100957e+01 9.378416e+00 1119
2.057736e+01 1.729696e+01 6.947171e+00 1133
-2.803067e+01 1.967915e+01 1.472070e+01 1137
1.768453e+01 1.177965e+01 3.235097e+00 1140
-3.179326e+01 -1.680681e+01 1.440094e+01 1147
1.668413e+01 1.552928e+01 1.421844e+01 1168
-4.797341e+01 -2.241348e+00 9.521909e+00 1174
-1.432295e+01 -2.427151e+01 6.416269e+00 1176
2.539324e+01 1.024284e+01 6.950034e+00 1183
-4.249820e+01 -2.209224e+01 1.071054e+01 1193
-2.614500e+01 -2.087759e+01 1.175108e+01 1196
-4.921914e+01 5.809969e-01 2.000557e+01 1198
4.462655e+01 5.281481e+00 2.248295e+01 1210
-4.777893e+01 1.546284e+01 2.328517e+01 1222
3.690114e+00 1.805969e+01 3.957271e+00 1226
-1.522480e+01 1.477980e+01 2.067379e+01 1230
-4.437512e+01 -1.663016e+01 1.329832e+00 1232
2.607095e+01 1.207554e+00 5.877723e+00 1238
4.570353e+01 -3.223736e+00 1.190923e+01 1242
-5.180374e+00 -1.054166e+01 2.580457e+00 1250
4.861281e+01 -1.453452e+01 1.296403e+01 1252
-2.210692e+00 1.606807e+01 1.028070e+00 1260
3.489284e+01 5.384920e+00 2.441720e+01 1273
-2.823486e+01 -5.848041e+00 1.402578e+00 1278
2.564523e+01 -9.622268e+00 1.732006e+00 1284
-1.635552e+01 4.391830e+00 2.516348e+01 1286
3.097444e+01 9.835337e+00 1.400000e+00 1292
-2.857093e+00 -5.884592e-01 2.817677e+01 1312
-2.964791e+00 -5.279088e+00 2.025866e+01 1323
-2.046493e+01 -2.340482e+01 2.427817e+01 1326
-2.312211e+01 -2.209060e+01 2.378555e+01 1332
2.849153e+01 -2.051828e+01 2.479289e+01 1333
-4.607890e+01 -6.347597e-01 1.822366e+01 1334
2.065202e+01 -1.878913e+01 1.493393e+01 1337
-1.930997e+01 4.435081e+00 4.165915e+00 1340
-6.265269e+00 -1.386640e+01 2.778668e+01 1342
-3.494397e-01 5.257631e+00 1.971231e+01 1346
2.411934e+01 1.646646e+01 1.621722e+01 1350
9.987969e+00 -5.787702e+00 2.639544e+01 1351
3.576882e+01 9.006919e-01 1.853315e+01 1352
-6.128605e+00 -4.807205e+00 1.183069e+01 1356
6.993660e+00 -6.356003e+00 1.457478e+01 1362
-4.493910e+01 5.300679e+00 1.547708e+01 1374
3.315448e+01 8.041483e+00 1.276326e+01 1375
3.181827e+01 1.038658e+01 1.453969e+01 1382
1.757612e+01 -2.700582e+00 2.043029e+01 1385
-5.513667e-01 -2.363544e+01 1.551877e+01 1395
1.507427e+01 1.233172e+01 1.367767e+01 1415
1.196610e+01 -1.851655e+01 1.947006e+01 1420
-8.052980e+00 1.971414e+01 6.477664e+00 1421
1.907515e+01 -1.773160e+01 2.021016e+01 1423
1.881153e+01 -1.158103e+01 8.572788e+00 1442
4.909028e+01 -4.707078e+00 1.044969e+00 1446
8.005003e+00 -1.721845e-01 1.761169e+01 1451
9.114156e+00 7.451210e+00 1.312266e+01 1455
3.551865e+01 -9.164300e+00 1.585118e+00 1460
1.056095e+01 -1.615348e+01 1.822274e+01 1470
-2.134789e+01 -3.466083e+00 6.367115e+00 1471
-2.993472e+01 -9.102116e+00 2.224469e+01 1472
3.697194e+01 -9.027591e+00 1.382823e+01 1474
-1.645427e+00 -1.365946e+01 1.448610e+01 1478
-4.311975e+01 1.722879e+01 2.177220e+01 1479
-1.704518e+01 -1.149999e+01 1.245129e+01 1493
2.669496e+01 -1.587808e+01 1.170552e+01 1496
-3.830174e+01 1.277557e+01 1.462231e+01 1502
1.784407e+01 1.790592e+01 1.686190e+01 1514
-1.295400e+00 -1.147566e+01 2.750707e+01 1516
3.694697e+01 -3.033223e+00 8.049518e-02 1517
-3.731351e+00 2.119073e+01 1.968957e+01 1518
-1.335684e+01 -1.945200e+01 7.539480e+00 1523
4.510176e+01 -1.858939e+01 2.793070e+01 1531
-5.461944e+00 1.814214e+01 3.129725e+00 1546
3.158065e+01 -3.112918e+00 8.070370e+00 1551
-4.806600e+01 1.094570e+01 2.504506e+01 1562
5.599181e+00 1.759922e+01 2.770303e+01 1576
-3.367950e+01 1.225716e+01 2.153611e+01 1580
-4.031911e+01 1.653864e+01 2.000120e+01 1582
4.768772e+01 -1.652561e+01 1.978543e+01 1584
-5.099127e+00 -1.274514e+01 1.976091e+01 1589
-2.985964e+01 2.134026e+01 2.910432e+01 1591
-1.946084e+01 2.389698e+01 2.853062e+01 1595
-4.439950e+00 1.051890e+01 2.534092e+01 1598
1.426130e+01 2.137079e+01 1.597292e+01 1606
3.673523e+00 -8.712846e+00 2.241205e+01 1615
2.024879e+01 -1.206446e+01 4.394688e+00 1617
3.153664e+01 -6.070586e+00 1.105664e+01 1620
-7.754257e+00 1.127155e+01 5.121082e+00 1623
-3.356657e+01 -2.378478e+01 1.149561e+01 1634
2.231744e+01 2.334280e+01 2.336922e+01 1642
-5.131166e+00 -3.920323e+00 1.495090e+01 1655
-4.103049e+01 1.589562e+01 3.585179e+00 1667
6.278718e+00 -2.119244e+01 1.972329e+01 1669
7.107764e+00 -7.737377e+00 1.598723e+01 1687
-4.359283e+01 2.497947e+01 2.416995e+01 1688
-4.010724e+01 -9.645405e+00 1.024514e+01 1701
2.358638e+01 1.657633e+01 2.043153e+01 1709
-4.554360e+01 7.460097e+00 1.019209e+01 1724
4.784384e+01 -6.674262e+00 2.705157e+01 1727
2.707720e+01 1.118262e+01 1.895135e+01 1735
3.066573e+00 7.287120e+00 9.913165e+00 1743
1.893360e+01 4.263167e+00 1.900008e+01 1744
3.197732e+01 7.855492e+00 4.013399e+00 1752
4.526627e+01 1.277574e+01 1.434996e+01 1754
-4.149675e+01 2.220965e+01 1.998623e+01 1756
1.023118e+01 9.105565e+00 2.153126e+01 1757
-4.059040e+01 1.758228e+01 5.503641e-02 1761
2.362615e+01 -2.687607e+00 6.516752e-01 1763
2.028864e+01 -2.277192e+01 2.919739e+01 1772
-4.624257e+01 -7.587519e-01 2.012687e+01 1773
-7.441144e+00 -1.933368e+01 1.670309e+01 1777
3.575915e+01 -1.221987e+01 1.127925e+00 1779
4.582239e+01 -1.138748e+01 2.603669e+01 1782
1.731802e+01 1.432117e+01 1.083722e+01 1784
-3.659498e+01 -9.283403e+00 1.838293e+01 1794
4.985671e+01 2.383498e+01 1.819563e+01 1798
-3.438195e+01 -2.197224e+01 2.017508e+01 1810
-4.605986e+01 7.914709e+00 8.166726e+00 1811
1.238755e+01 -2.447555e+01 1.615424e+01 1833
3.828069e+01 -6.463401e+00 2.634930e+01 1862
-2.770766e+01 3.900944e+00 1.588360e+01 1874
1.056101e+01 1.423116e+01 1.818336e+00 1876
3.330938e+01 -2.424940e+01 1.400423e+01 1877
2.635229e+01 2.063180e+01 1.745094e+01 1888
4.599369e+01 1.730775e+01 2.265635e+00 1895
-1.688371e+01 5.893974e-01 8.799064e+00 1906
4.723398e+01 -1.242233e+01 2.442772e+01 1908
2.634104e+01 -1.381181e+00 6.308533e+00 1912
-3.250180e+01 1.687250e+01 1.762946e+01 1920
1.185222e+01 1.840832e+01 1.772174e+01 1931
-4.694921e+01 2.385502e+01 3.834703e+00 1933
4.510228e+01 9.291384e+00 2.588196e+01 1959
-5.741453e-01 5.456492e+00 1.987939e+01 1968
-2.062976e+01 3.130774e+00 1.477107e+01 1972
-2.752396e+01 2.303447e+01 1.692076e+00 1973
4.403607e+01 2.116941e+00 1.450768e+01 1984
4.062769e+00 -1.013712e+01 1.752651e+01 1987
4.762821e+01 -2.402940e+01 9.498105e+00 1988
1.989885e+01 5.315661e+00 2.575356e+01 1990
4.652280e+01 1.383444e+01 2.242314e+01 1996
1.693442e+01 1.333907e+01 7.492826e+00 1997
-2.630215e+01 -5.411251e+00 2.297812e+01 2002
1.157337e+01 2.385530e+00 2.691050e+01 2009
5.381052e+00 2.497990e+01 1.839341e+01 2029
3.443400e+01 -3.224142e+00 2.726470e+01 2042
1.764783e+01 1.273948e+01 1.356190e+01 2044
-8.966821e+00 -1.678929e+01 2.656671e+01 2054
7.185274e+00 8.432936e+00 8.702276e+00 2057
1.674243e+01 2.344125e+01 2.020033e+01 2062
-1.620838e+01 8.997905e+00 1.965554e+01 2063
-6.238815e-01 1.026077e+01 8.513036e+00 2091
-4.925790e+01 5.191253e+00 8.596052e+00 2092
-2.734133e+01 -1.281296e+01 1.730616e+01 2093
2.886360e+01 7.651481e+00 2.505624e+00 2094
-3.713934e+01 1.953105e+01 2.808766e+01 2109
-1.182019e+01 -6.557609e+00 5.978967e+00 2118
-3.055872e+01 2.463027e+01 5.545539e+00 2126
4.428174e+01 9.718665e+00 4.243086e+00 2128
1.287350e+01 -1.519837e+01 1.805862e+01 2129
-3.152918e+00 2.042458e+01 2.427991e+01 2137
1.029272e+01 3.407778e+00 5.413544e+00 2142
4.225415e+01 1.011041e+01 1.455404e+01 2145
2.040078e+01 2.439455e+01 2.527724e+01 2148
-1.134974e+01 -1.572199e+01 1.223559e+01 2153
3.350117e+01 1.510677e+01 1.408362e+01 2154
-1.747539e+01 1.887713e+01 1.913950e+01 2159
9.698932e+00 -1.061057e+00 1.270620e+01 2166
-4.421287e+01 7.342226e+00 8.062766e+00 2191
8.783871e+00 2.359868e+01 2.020927e+00 2200
-9.393250e+00 -8.943206e+00 1.087689e+01 2210
-3.962097e+01 7.781886e+00 2.340140e+01 2217
1.337504e+01 -5.237949e+00 2.434876e+01 2227
4.898306e+01 5.270300e+00 2.743571e+01 2228
5.714892e+00 -1.276360e+01 2.666602e+01 2233
3.284854e+01 2.600089e+00 4.237018e+00 2234
3.743076e+01 -1.912509e+01 2.450792e+01 2238
-3.291672e+01 9.990874e+00 2.335707e+01 2240
-3.824721e+01 -1.159322e+01 2.150250e+01 2244
-9.633140e+00 1.794742e+01 1.003249e+01 2252
-4.393782e+01 -1.202970e+01 3.574019e+00 2253
-4.535012e+01 8.876469e+00 8.936205e+00 2269
3.453407e+01 -4.482305e-01 6.282751e+00 2270
1.935265e+01 1.989521e+01 2.624372e+01 2287
8.740737e+00 8.074223e+00 1.496044e+01 2292
-3.448303e+01 1.395761e+01 2.259005e+00 2297
-2.021662e+01 -7.211569e+00 2.892960e+01 2307
2.622228e+01 1.046033e+01 8.681749e+00 2314
3.398366e+01 9.527199e+00 1.808515e+01 2334
4.937399e+01 -1.010037e+01 1.819296e+01 2347
1.130938e+01 7.480586e+00 2.839007e+01 2357
-1.255366e+01 2.375763e+01 2.683623e+01 2361
-2.109125e+01 9.770312e+00 2.547995e+01 2372
-2.287061e+01 -1.456137e+01 1.245023e+00 2386
-4.964603e+01 2.015311e+01 1.583908e+01 2391
3.540177e+00 2.266068e+01 2.393804e+01 2399
3.624750e+01 -9.142791e+00 2.959751e+00 2408
7.168396e+00 2.310789e+01 1.293174e+00 2425
4.727101e+01 -1.992581e+01 1.875996e+01 2426
2.676058e+01 -3.594280e+00 2.978695e+01 2428
-3.321923e+01 -8.759969e+00 2.201002e+01 2442
2.269591e+01 1.923038e+01 2.396724e+01 2451
-1.218289e+01 -1.649279e+01 2.280643e+01 2452
-1.636724e+01 -1.744746e+01 2.030607e+01 2454
4.362271e+01 -1.672558e+01 2.759116e+01 2494
-2.641415e+01 -5.954134e+00 1.849084e+01 2520
4.117284e+01 -2.374870e+01 1.561028e+01 2526
-2.861606e+01 1.441590e+00 1.601735e+00 2528
2.281675e+01 -1.868348e+01 2.553121e+01 2542
-3.065471e+01 9.711176e+00 2.137665e+01 2544
-1.625563e+01 1.192351e+01 1.804443e+01 2556
-1.415508e+01 -1.938902e+00 2.697290e+01 2566
-3.839733e+00 -1.201502e+01 4.823105e+00 2571
-8.922574e+00 9.785334e+00 1.491062e+01 2586
2.279875e+01 -8.461716e+00 2.307918e+01 2587
-3.683909e+01 2.234195e+01 2.949292e+01 2594
4.250233e+01 -3.259545e+00 1.460308e+01 2595
-2.653818e+00 1.521984e+01 7.569480e+00 2597
8.592341e+00 1.785991e+01 1.188814e+01 2598
-1.076984e+01 -2.274166e+01 2.369313e+00 2607
-1.821371e+01 -2.214551e+01 2.580994e+01 2633
2.699549e+01 2.245405e+01 2.675412e+01 2637
2.187110e+01 2.257929e+01 1.192070e+01 2640
1.734920e+01 -1.298488e+01 1.074846e+01 2644
-1.378541e+01 -9.334459e+00 4.636814e+00 2646
-4.735885e+01 -1.989765e+01 9.659854e+00 2649
-8.647247e+00 -1.698847e+01 2.698978e+01 2651
-4.499503e+01 -1.399971e+01 1.421040e+01 2653
-4.132982e+01 5.037266e+00 2.035190e+01 2670
-3.174197e+00 1.123353e+01 3.612312e+00 2704
-1.797368e+01 -1.985231e+01 1.655215e+01 2710
4.301368e+01 -4.788342e+00 2.699768e+01 2713
2.358468e+01 -4.858366e-01 8.740407e-01 2717
3.338863e+01 1.641613e+01 2.185693e+01 2731
4.283974e+01 -1.358625e+01 2.734343e+01 2734
2.838906e+01 -1.649967e+01 3.704206e-02 2739
-2.566546e+01 7.655289e+00 1.519352e+01 2752
-4.202419e+01 5.924785e+00 1.578494e+01 2760
-1.800594e+01 -2.260788e+01 2.867844e+01 2765
4.337519e+01 1.115535e+01 1.795061e+00 2769
4.088420e+01 8.441806e+00 2.474730e+01 2771
-2.396925e+01 -2.116297e+01 2.763400e+01 2772
2.334844e+01 -1.905542e+01 3.623988e+00 2782
3.845899e+00 -1.017584e+01 2.876285e+01 2787
-2.359995e+01 4.891604e+00 1.695792e+00 2795
1.811352e+01 -9.687518e+00 2.477870e+01 2800
-1.330563e+00 -2.263983e+01 8.079017e+00 2814
1.178781e+01 1.661911e+01 2.809993e+01 2816
-3.799500e+01 2.240282e+01 4.179748e+00 2836
-3.403692e+01 -1.400843e+00 9.250172e+00 2848
-4.977574e+01 4.394794e+00 2.657844e+01 2860
-4.079267e+01 1.854080e+00 2.214344e+01 2866
-1.148801e+01 1.009825e+01 5.490129e+00 2868
-4.628966e+01 -4.873865e+00 1.312392e+01 2874
-1.867088e+01 -2.351484e+01 2.985084e+00 2877
1.756335e+01 1.025008e+00 4.606586e+00 2879
4.427753e+01 2.144991e+01 2.257542e+01 2883
2.430305e+00 1.593085e+01 6.712108e+00 2906
-1.312269e+01 1.059667e+01 2.506655e+01 2907
3.397767e+01 1.813751e+01 1.947127e+00 2923
-2.935484e+01 -2.041675e+01 2.278368e+01 2926
-2.705262e+01 -8.263873e-01 1.433965e+01 2940
-3.005470e+01 1.863067e+01 1.868690e+01 2943
3.957051e+01 -1.385124e+01 1.946208e+01 2952
2.483222e+01 -5.240031e+00 1.975733e+00 2956
3.778010e+00 -2.115210e+01 1.094934e+01 2970
2.470853e+01 -1.175526e+01 2.837287e+01 2982
1.299973e+01 1.094251e+01 1.629311e+01 2990
-3.335212e+01 1.562618e+01 1.591212e+01 2995
-2.167197e+01 5.360489e+00 1.100876e+01 2998
-1.690036e+01 1.778577e+00 9.546041e-01 3008
4.634781e+00 5.559691e+00 2.891839e+01 3025
-4.055135e+01 5.948571e+00 2.499027e+01 3028
3.167249e+01 -2.475443e+01 5.581665e-01 3044
1.586878e+01 1.875017e+01 2.271031e+01 3059
-4.709272e+01 -1.875771e+01 2.204325e+01 3067
1.956788e+00 -9.649783e+00 2.121329e+01 3081
1.910625e+01 4.709711e-01 1.929971e+01 3083
-2.470394e+01 -1.075076e+01 1.164124e+01 3089
4.860479e+01 -1.432195e+01 1.951176e+01 3094
-3.758687e+01 -1.816665e+01 1.559030e+01 3103
7.160524e+00 1.105597e+01 9.761934e+00 3104
-3.157197e+01 1.621904e+01 2.981712e+01 3120
1.601187e+01 1.694391e+01 7.496797e+00 3123
-1.823688e+01 -1.158369e+01 2.956138e+01 3134
2.629952e+01 -2.819432e+00 6.236923e-01 3156
4.442661e+01 -8.387805e+00 3.312899e+00 3157
-4.338442e+01 -1.612243e+01 2.272176e+00 3198
9.642701e+00 -6.911721e+00 2.562788e+01 3200
4.547439e+01 2.443623e+01 2.789022e+01 3209
4.008772e+01 2.264804e+01 2.699788e+01 3218
-2.496291e+01 1.625313e+01 1.580313e+00 3223
-1.422934e+01 1.655422e+00 1.315882e+01 3244
2.895102e+01 5.293833e+00 1.967161e+01 3248
2.373364e+01 -1.384978e+01 2.454368e+01 3254
4.849553e+01 4.347936e+00 1.197533e+01 3257
-4.850937e+01 -1.914223e+01 2.869719e+00 3258
4.440092e+01 -3.826461e+00 1.089449e+01 3259
2.370498e+00 2.011509e+01 2.630340e+01 3262
4.677616e+01 -4.741219e+00 1.876709e+01 3263
3.003854e+01 -1.688297e+01 3.747833e+00 3273
-5.729386e+00 -2.070090e+01 2.280130e+01 3285
4.024562e+01 -1.615298e+01 3.374610e+00 3308
2.522311e+01 1.560039e+01 5.543145e+00 3317
-4.082172e+01 -7.385596e+00 6.454036e-01 3321
-3.143445e+01 2.473884e+01 2.136391e+01 3322
2.223141e+01 9.342407e+00 3.086448e+00 3333
3.258494e+01 1.343829e+01 1.434275e+01 3347
1.986360e+01 -9.982249e+00 3.318147e+00 3348
-2.172539e+01 -2.051301e+01 3.422967e+00 3353
-1.924959e+01 -2.014787e+01 2.806420e+01 3357
3.575542e+01 -7.135004e+00 1.008327e+01 3366
-2.365178e+01 1.192300e+01 1.045352e+01 3375
4.058205e+01 -6.174107e+00 1.583059e+00 3398
-4.010146e+01 1.668772e+01 5.653020e+00 3402
-4.460491e+01 1.117782e+01 2.757602e+01 3415
-2.407736e+01 1.695971e+01 2.100528e+00 3431
-2.091905e+00 -8.107972e+00 2.087445e+01 3433
2.689124e+01 -1.532750e+01 2.951181e+01 3445
-3.843991e+01 -2.348285e+01 1.993000e+01 3447
4.783187e+01 -2.479773e+01 2.770779e+01 3450
3.094609e+01 1.780934e+01 2.270654e+01 3456
-2.757495e+01 -8.980214e+00 2.236156e+01 3460
-4.511504e+01 2.029838e+01 2.307913e+01 3461
4.389636e+01 -2.376780e+01 1.924076e+01 3463
-1.024138e+00 8.079083e+00 2.964384e+01 3464
-3.744820e+01 -1.557419e+00 1.412974e+01 3484
1.794419e+01 -2.403705e+01 3.623988e+00 3487
2.316944e+01 -7.061039e+00 2.278755e+01 3488
2.269104e+01 1.915353e+00 7.657281e+00 3491
3.331398e+01 -3.432733e+00 1.778300e+01 3492
-1.249514e+01 2.589587e+00 2.716117e+01 3498
5.624665e+00 -1.219161e+01 1.234822e+01 3503
6.745223e-01 1.418667e+01 2.043509e+01 3527
-4.272770e+01 -4.343940e+00 8.550864e+00 3532
3.093791e+01 -4.983396e-02 7.238665e+00 3535
-3.441666e+01 -1.741830e+01 1.908888e+01 3538
-2.538724e+01 -6.678725e+00 1.701009e+01 3562
4.772312e+01 -1.768819e+01 1.483610e+01 3578
2.315484e+01 8.725278e+00 1.005365e+01 3593
-3.106361e+01 -2.275031e+01 5.134214e+00 3604
-2.217776e+01 -1.659463e+01 1.472667e+01 3612
1.400963e+01 -1.159615e+01 2.449398e+01 3614
4.148261e+01 -6.347637e+00 1.417777e+01 3621
-4.822408e+01 -1.560125e+01 2.230489e+01 3626
-3.758974e+01 -1.771676e+00 9.567186e+00 3639
-3.186498e+01 1.098966e+01 2.163580e+00 3652
-8.607949e+00 5.076492e-01 1.105213e+01 3659
-2.166686e+01 -1.702783e+01 1.519714e+01 3663
1.758539e+01 2.161031e+01 1.965950e+01 3669
4.472923e+01 -1.840126e+00 1.870022e+00 3675
4.169364e+01 -5.313784e+00 1.649155e+00 3677
-3.284701e+00 -1.713528e+01 4.304467e+00 3679
-3.393246e+01 6.348792e+00 1.549540e+01 3682
-3.922945e+01 -1.294980e+01 1.912436e+01 3685
-3.306343e+01 7.963604e-01 2.247721e+00 3686
4.161950e+01 -1.266991e+01 8.148622e+00 3713
4.437507e+01 -2.848747e+00 2.593982e+01 3717
-2.154140e+01 1.130371e+01 2.203415e+01 3727
-2.417786e+01 -1.187463e+01 2.820046e+01 3729
-2.846313e+01 -2.422376e+01 9.599335e+00 3730
2.181186e+01 -4.812896e-01 2.038027e+01 3733
-8.534288e+00 1.266162e+00 7.376934e+00 3734
2.367145e+01 1.719454e+01 2.910841e+01 3736
2.783851e+01 6.624219e-01 7.648972e+00 3741
1.075613e+01 1.171694e+01 2.767546e+01 3747
-4.967934e+01 -1.452388e+01 2.902001e+01 3755
-8.066144e+00 -1.663889e+01 1.443132e+01 3758
-2.246055e+01 -8.976819e+00 2.704344e+01 3760
-4.781218e+01 2.987036e+00 2.903430e+01 3761
-5.650180e+00 -1.799721e+01 1.458871e+01 3762
-4.812508e+01 -5.619561e+00 2.522736e+01 3766
3.644590e+01 1.804821e+01 2.617502e+01 3771
-3.411853e+01 -4.549672e+00 2.232193e+01 3780
4.352432e+01 2.870931e+00 8.282933e+00 3788
-1.091083e+01 -1.344229e+01 1.891603e+00 3798
2.223217e+01 -1.755617e+01 2.757216e+01 3800
7.599267e+00 -1.500123e+01 1.452744e+01 3801
2.797790e+01 1.967451e+01 1.811115e+01 3804
-2.295807e+01 8.721960e+00 1.173858e+01 3820
8.826261e+00 5.805941e-02 2.984475e+01 3824
3.744557e+01 -6.565027e+00 3.290313e+00 3836
7.871479e+00 -1.276271e+01 3.907656e+00 3844
-4.279304e+01 1.394570e+01 2.539542e+01 3849
-2.150573e+01 -4.709840e+00 1.866046e+01 3854
3.125983e+01 1.450085e+01 1.968134e+01 3856
3.757147e+01 1.939705e+01 1.780028e+00 3857
5.037496e+00 2.091053e+01 1.701368e+01 3858
3.228467e+01 1.451700e+01 1.502904e+01 3859
-1.753670e+01 -2.390139e+01 1.629923e+01 3865
4.587965e+01 1.879890e+01 1.792934e+01 3880
3.078833e+01 -6.428447e+00 8.622420e+00 3889
1.365700e+01 -2.022167e+01 1.679757e+00 3910
3.043761e+00 -2.140736e+01 2.171482e+01 3911
4.904718e+01 1.287556e+01 2.233512e+01 3919
4.214438e+01 -2.217874e+01 1.888497e+01 3929
4.462976e+01 -5.327029e+00 2.768602e+01 3930
-3.226428e+01 2.158165e+01 2.188119e+01 3935
3.391750e+01 -2.402745e+00 5.190136e+00 3953
1.467976e+01 6.119613e+00 2.444588e+01 3957
2.848175e+01 1.979611e+01 2.602944e+01 3963
3.117428e+00 8.015308e+00 1.390998e+01 3969
2.508376e+01 1.972870e+01 9.926610e-01 3973
-3.614244e+01 -1.256042e+01 2.091941e+01 3984
-1.700997e+01 -9.210998e+00 2.083229e+01 3989
-3.311569e+01 2.109792e-01 6.045816e+00 4011
3.612179e+01 1.844755e+01 1.179443e+01 4016
6.135426e+00 -1.038709e+00 1.899318e+01 4017
-1.674019e+01 -6.971035e+00 1.311541e+01 4020
-4.689559e+01 9.716898e+00 2.133432e+01 4029
3.565828e+01 -9.308840e+00 2.895239e+01 4034
-7.406118e+00 8.072701e+00 1.526872e+01 4036
-2.563724e+00 -5.867631e-01 4.768026e+00 4037
-1.489715e+01 -6.600312e+00 8.775449e+00 4039
-6.051919e+00 3.937094e+00 2.677853e+01 4046
-4.901073e+01 -8.982458e+00 1.350194e+01 4057
4.515910e+01 -1.799219e+01 2.926520e+01 4061
1.794072e+01 8.764063e+00 2.560192e+01 4066
-3.964449e+01 -8.453776e+00 8.186628e+00 4079
2.521972e+01 1.385635e+01 7.367523e+00 4080
-3.501311e+01 6.873190e+00 1.402295e+01 4088
-2.714213e+01 -2.184905e+01 1.010325e+01 4104
4.092510e+01 -1.611023e+01 2.229404e+01 4106
3.442698e+01 -2.484174e+01 6.845843e+00 4120
2.270202e+01 1.857697e+01 1.236779e+01 4144
-4.949895e+01 1.503202e+01 2.493432e+01 4150
-2.607655e+01 -3.679765e+00 1.627667e+01 4152
4.331886e+01 1.458963e+01 2.412229e+01 4161
4.965733e+01 1.762865e+01 2.137299e+01 4163
-1.345855e+01 -2.464985e+01 1.523188e+01 4165
3.866716e+01 -5.130851e+00 5.609276e+00 4170
5.819909e+00 4.211109e+00 2.013305e+01 4172
-7.925889e+00 -3.050181e+00 1.577844e+01 4178
1.633542e+01 1.598999e+01 1.223580e+01 4183
-3.476670e+00 1.121933e+01 2.886203e+01 4184
2.251256e+01 -1.559028e+01 3.342491e+00 4194
-1.761494e+01 7.169548e+00 2.733313e+01 4201
1.680680e+01 -2.376304e+01 1.473051e+01 4209
-6.288384e+00 -2.357532e+01 3.909587e+00 4211
1.126044e+01 2.141812e+01 2.365053e+01 4239
1.767451e+01 1.648593e+01 3.827930e+00 4245
3.454936e+01 6.478582e+00 2.028914e+00 4248
2.129616e+01 -1.953792e+01 1.490616e+01 4252
-1.557055e+01 -2.947701e+00 2.546658e+01 4256
-1.206202e+01 1.491307e+01 6.746869e+00 4265
-1.814691e+00 2.141359e+01 2.181901e+01 4266
2.027157e+01 8.603907e+00 2.574253e+01 4268
3.958771e+01 -1.742599e+01 2.333480e+01 4302
4.751546e+01 1.554204e+01 1.714166e+01 4304
-4.048622e+01 5.096840e-01 2.142396e+01 4308
-3.058043e+01 2.562239e+00 3.235107e+00 4314
3.421957e+01 -7.973032e+00 2.466483e+01 4318
3.279004e+01 8.869872e+00 1.705243e+01 4325
-1.776731e+01 -1.516123e+01 2.596132e+01 4332
1.429498e+01 -1.226953e+01 8.559257e+00 4340
-1.198624e+01 4.145896e+00 2.223995e+01 4347
-2.973416e+01 -3.248633e-01 4.459026e-01 4351
7.201555e+00 -6.135098e+00 1.274805e+01 4352
-2.370887e+01 1.030520e+01 2.846839e+01 4353
1.489274e+01 1.690228e+01 2.943220e+00 4359
-4.483574e+01 1.453443e+01 1.117159e+01 4360
-2.352338e+01 9.347842e+00 3.996740e+00 4370
4.185618e+01 -8.893441e+00 4.700899e+00 4378
-2.772371e+01 1.980002e+01 1.068641e+01 4389
1.442396e+01 -2.139584e+01 6.618453e+00 4395
5.819372e+00 1.494790e+01 2.419076e+01 4396
-1.578899e+01 2.140976e+01 2.083065e+01 4402
1.099031e+00 -1.925123e+00 1.759299e+01 4404
4.011730e+01 -9.469464e+00 2.929175e+00 4408
4.525195e+01 -2.059043e+01 2.205055e+01 4409
1.164307e+01 9.972504e+00 6.776898e-01 4423
-4.939421e+00 -4.160800e+00 2.691111e+01 4432
-2.783371e+01 1.526822e+01 1.715508e+01 4434
-3.786459e+01 1.769388e+00 1.314659e+01 4435
1.699158e+01 1.119578e+01 1.434434e+01 4448
-2.859582e+01 1.235446e+01 2.894243e+01 4453
-4.481863e+01 9.277991e+00 2.400897e+01 4462
-1.723729e+01 1.966229e+01 2.688616e+01 4470
-1.799919e+01 2.355190e+01 4.111864e+00 4480
2.283472e+01 2.027467e+01 1.456791e+01 4481
3.060565e+01 2.351336e+00 2.377402e+01 4485
-1.302647e+01 1.282771e+01 1.495085e+01 4488
1.291782e+01 -8.778968e+00 8.991259e+00 4511
1.954522e+01 -4.742768e-01 1.989730e+01 4515
2.887143e+01 2.639022e+00 1.077572e+01 4524
-8.646499e+00 -2.163914e+01 1.098436e+01 4534
-1.519838e+00 1.007649e+01 2.407184e+01 4537
-1.813290e+01 1.300320e+01 5.373300e+00 4538
4.736450e+00 1.610133e+00 2.012878e+01 4541
-3.037580e+01 1.314159e+01 9.834987e+00 4544
-6.712328e+00 2.041101e+01 1.647337e+01 4578
1.479942e+01 1.185311e+01 1.948246e+01 4584
-4.159164e+01 5.946307e+00 1.534601e+01 4602
2.775443e+01 -1.140603e+01 8.862309e+00 4606
4.681683e+01 1.952689e+01 2.949437e+00 4614
4.317040e+01 -5.856593e-01 4.632017e+00 4618
5.769336e+00 -2.561103e+00 7.529456e+00 4620
-3.221825e+01 -5.208125e+00 8.174348e-02 4621
3.718515e+01 -1.304425e+01 7.739775e+00 4623
-7.968939e+00 -2.325777e+01 6.666829e+00 4624
3.595490e+01 3.252711e+00 1.493708e+01 4626
8.951218e+00 -3.218280e+00 1.852921e+01 4635
-3.804460e+01 1.696438e+01 2.732772e+01 4636
-4.301893e+01 1.341247e+00 2.269216e+01 4638
-4.486121e+01 -1.243213e+01 1.899387e+01 4640
4.657285e+01 1.373719e+01 2.803328e+00 4645
-4.654852e+01 -1.488327e+01 2.979267e+01 4646
9.166629e+00 -2.198467e+01 1.593741e+01 4654
1.769679e+01 -5.878058e+00 1.571879e+01 4659
-2.357842e+01 1.737009e+01 2.377675e+01 4660
-1.105611e-01 -2.331686e+01 1.166608e+01 4663