Title = Snapshot #14
Variables=X Y Z PartID
Zone I= 6455, F=POINT
-7.343851e+00 2.444941e+01 8.754569e+00 0
7.351232e+00 -1.047954e+01 2.042816e+01 2
4.394860e+00 1.137000e+01 2.804642e+01 8
5.200438e+00 1.948560e+01 2.114336e+01 12
-9.602215e+00 5.750100e+00 9.427539e+00 14
-3.614759e+01 1.975125e+01 1.009123e+00 17
-2.542790e+01 1.273431e+01 9.772002e+00 18
2.671028e+01 2.498904e+01 1.318971e+01 20
-3.982693e+01 -2.225191e+01 1.849135e+01 21
-2.373929e+01 -1.482310e+01 2.622425e+01 23
1.539262e+01 -1.217200e+01 1.419527e+01 31
-1.883486e+01 -1.721190e+00 4.468315e+00 41
4.239646e+00 7.621158e+00 1.200826e+01 42
-2.629764e+01 4.276300e+00 2.403058e+01 45
2.304408e+00 -6.793623e-01 2.967395e+01 46
4.853886e+01 5.382354e+00 2.493517e+01 68
-4.867929e+01 -2.103590e+01 2.764586e+01 74
-3.090891e+01 -1.375544e+01 7.058929e+00 80
1.495494e+00 2.466823e+01 1.285087e+01 82
2.215389e+01 1.311113e+01 7.258068e+00 91
2.573240e+01 -1.150775e+01 2.240324e+01 95
2.785336e+01 1.429403e+01 2.646652e+01 98
4.118388e+01 1.313412e+01 1.611898e+01 135
4.104964e+00 -8.489794e+00 1.585662e+01 137
2.967442e+01 9.159570e+00 1.356131e+01 150
-2.006815e+01 -6.749414e+00 9.120574e+00 158
-2.354646e+01 -2.288732e+01 1.620250e+01 166
2.620279e+01 4.502542e-01 1.514829e+01 171
2.014610e+01 1.221340e+01 4.869123e+00 181
-1.282337e+01 8.229621e+00 1.207379e+01 214
-2.151664e+01 2.201795e+01 8.243758e+00 217
-4.461783e+01 -1.334407e+01 2.468760e+01 219
-2.692767e-01 2.200079e+00 9.532215e+00 233
1.875025e+01 -1.646632e+01 4.870605e+00 257
-4.660752e+01 -2.242561e+01 2.054090e+01 279
5.599824e+00 2.370562e+00 1.864374e+01 295
-4.676826e+01 -1.826877e+01 2.934937e+00 309
2.598476e+01 -2.476096e+01 7.295430e+00 311
3.444910e+01 -1.932908e+01 7.078044e+00 317
3.752331e+00 -1.466418e-01 2.417842e+01 319
6.449509e+00 -1.920895e+01 2.314753e+01 321
-4.523071e+01 1.482602e+01 1.631509e+01 325
-3.321879e+01 -1.081438e+01 7.444085e+00 340
3.799553e+01 2.368168e+01 2.761268e+01 352
4.118792e+01 1.531236e+01 1.681723e+01 363
-1.676307e+01 2.353330e+01 3.500192e+00 373
3.801487e+01 4.050799e-03 2.851118e+01 375
-2.914196e+01 1.302258e+01 4.268322e+00 396
1.311915e+01 1.014583e+01 1.234461e+01 412
-1.748876e+01 -1.969709e+01 2.521130e+01 425
2.473400e+00 1.393710e+01 4.128120e-01 426
-9.144357e+00 6.669304e-02 7.988216e+00 427
1.692844e+01 1.055489e+01 2.411728e+01 441
1.437307e+01 1.752448e+01 2.657138e+01 443
4.961274e+00 1.779277e+01 2.416932e+01 454
2.129772e+01 1.050682e+01 2.642767e+01 457
-6.444972e+00 2.211118e+01 1.768999e+01 467
3.052584e+01 -1.463340e+01 8.835928e+00 477
3.585883e+01 3.791879e+00 5.433130e+00 504
-1.128558e+01 6.017282e+00 1.371271e+01 505
6.959396e+00 1.309438e+01 2.977613e+01 506
-1.959577e+00 -1.313582e+01 1.045886e+01 510
-1.079569e+01 1.100150e+01 7.087627e+00 521
-1.928738e+01 -1.951218e+01 7.659465e+00 524
-4.086651e+01 7.243719e+00 2.267994e+01 536
1.411827e+01 1.824594e+01 1.189965e+00 537
-1.515424e+01 -1.235922e+01 2.910022e+01 555
4.356221e+01 1.474011e+01 2.718581e+01 558
-1.612970e+01 4.507402e+00 2.955691e+01 559
2.325273e+01 1.306752e+01 2.958438e+01 564
3.614954e+01 1.882583e+01 1.640582e+01 578
-7.809275e+00 2.063358e+01 4.101476e-01 581
-4.994972e+01 -2.192132e+00 1.558016e+01 582
-2.872026e+01 1.348814e+01 1.409021e+01 588
4.088430e+01 2.185127e+01 1.484409e+01 591
-5.758799e+00 1.636769e+01 2.623001e+01 594
-1.077999e+01 -2.426462e+01 7.199808e-01 611
-4.733682e+01 -5.324505e+00 1.454082e+01 626
3.827425e+01 1.663188e+01 2.385407e+00 629
-1.262208e+01 2.209270e+01 2.628502e+01 634
-3.378274e+00 -1.453986e+01 6.342561e+00 636
-2.213370e+01 -7.800556e+00 2.366246e+01 640
1.051954e+01 1.956955e+01 2.823288e+01 642
4.727590e+01 1.410601e+01 1.261813e+01 643
2.315789e+01 1.632719e+01 2.380124e+00 650
4.638380e+01 -2.351790e+01 8.852829e+00 657
-1.554083e+01 -3.457827e-01 2.116369e+01 661
-4.573305e+01 -8.357645e+00 7.675447e+00 667
7.902071e+00 -1.200226e+01 2.397690e+01 674
2.623426e+01 -1.188453e+01 3.238215e+00 675
3.395859e+00 -1.589354e+01 1.406676e+01 686
3.750698e+01 1.971267e+00 1.960187e+01 687
1.271109e+01 -6.155537e+00 2.917898e+01 688
-2.939745e+01 -1.536267e+01 2.104843e+01 691
4.703236e+01 -8.817707e+00 2.761937e+01 695
-2.883791e+01 -6.364121e+00 9.003184e+00 697
-2.859932e+01 1.694135e+01 1.386311e+01 701
-2.712785e+01 -1.050413e+01 2.630231e+01 702
-2.036534e+01 1.693633e+01 2.646399e+01 704
4.636127e+01 -3.473711e+00 2.761347e+01 706
-2.573863e+01 -2.362847e+01 1.237359e+01 721
4.230247e+01 2.228294e+01 1.036327e+01 723
2.786065e+01 1.535807e+01 2.063292e+01 724
1.398590e+01 1.263855e+01 1.109744e+01 729
-8.168448e+00 -7.804407e+00 2.483475e+01 731
-3.862897e+01 2.452549e+01 2.955805e+01 733
-2.549397e+01 1.505773e+01 1.632089e+01 743
-4.738943e+01 2.026348e+00 2.942156e+01 745
2.901778e+01 1.041885e+01 2.802342e+01 747
-7.615488e+00 -5.336585e+00 3.751746e+00 749
2.902337e+01 -1.124751e+01 1.022648e+01 752
1.661346e+01 1.136135e+01 2.671485e+01 754
-2.792058e+01 1.432982e+00 2.138538e+01 763
3.807316e+01 2.493710e+01 5.227805e+00 764
5.860256e-03 -1.268510e+01 3.090618e+00 776
-4.290575e+01 -2.376658e+01 4.377190e+00 782
3.262564e+01 -7.729459e+00 1.226769e+01 783
-2.055192e+01 8.286926e+00 6.733104e+00 791
-2.964272e+01 1.788253e+01 2.561628e+01 793
-1.360502e+00 1.725037e+01 2.471868e+01 797
6.158569e+00 -3.761814e+00 2.455348e+01 814
8.675224e+00 -1.185666e+01 2.759837e+01 823
3.041548e+01 1.776772e+00 1.663909e+01 841
-4.705235e+01 -1.803829e+01 3.549795e+00 848
2.368396e+01 2.868853e+00 2.521792e+01 852
3.036233e-01 -6.920007e+00 3.720951e+00 853
1.055607e+01 5.602931e+00 1.084097e+01 860
1.403447e+01 -6.225414e+00 3.748946e+00 862
1.634924e+01 1.337163e+01 9.830922e-02 865
-3.921582e+00 1.218018e+01 1.504801e+01 871
-1.502850e+01 -1.890987e+01 1.764388e+01 879
6.080153e+00 -1.567851e+01 2.146578e+01 890
-3.912413e+01 2.172718e+01 4.058296e+00 891
-3.703303e+01 1.996377e+01 2.957636e+01 892
-3.557967e+01 1.125700e+01 1.749308e+01 893
-5.792870e+00 1.738050e+00 1.613591e+01 899
1.552059e+01 -2.188611e+01 1.676678e+01 901
3.825644e+01 5.241095e+00 1.257484e+00 903
-3.007652e+01 8.488436e+00 1.484128e+01 918
-4.020301e+01 -4.743962e+00 2.074632e+01 928
7.814552e-01 2.323720e+01 2.995028e+01 938
-1.407520e+01 2.320593e+01 2.514055e+01 939
-3.264893e+01 -1.162728e+01 1.011278e+01 961
-1.115681e+01 -7.317187e+00 2.954929e+01 971
1.445930e+01 -2.379915e+01 1.594058e+01 974
1.365127e+01 -2.866418e-01 2.401485e+01 980
-6.943571e+00 -1.351273e+01 2.075409e+00 984
2.152302e+01 1.909715e+01 2.764212e+01 994
-3.490793e+01 -8.590125e+00 5.970419e+00 1000
2.861098e+00 8.731816e+00 2.775110e+01 1005
-3.701937e+01 9.973511e+00 2.081544e+01 1010
-1.847169e+01 1.332280e+01 2.920038e+01 1013
-4.172274e+01 5.911318e+00 2.334185e+01 1019
-3.563335e+00 -1.506668e+01 1.069594e+00 1024
-2.708259e+01 -1.156845e+01 2.449076e+01 1033
1.855045e-01 2.479261e+01 1.887012e+01 1042
4.285213e+01 7.695894e+00 2.273357e+01 1046
7.398835e+00 2.320254e+01 8.633861e+00 1054
-1.964950e+00 -7.069554e+00 2.522822e+01 1056
-3.908234e+01 2.323246e+01 3.845869e+00 1058
1.886196e+01 2.332585e+01 4.187425e+00 1091
2.181965e+01 1.996320e+01 5.104604e+00 1096
-1.455765e+01 -1.092141e+01 2.647837e+01 1100
4.798297e+01 -2.333201e+01 2.090606e+01 1104
1.160640e+00 1.170066e+01 8.788027e+00 1119
1.866451e+01 1.718636e+01 6.659669e+00 1133
-3.027013e+01 1.966689e+01 1.423296e+01 1137
1.603760e+01 1.139881e+01 2.869211e+00 1140
-3.364308e+01 -1.860224e+01 1.319702e+01 1147
1.462974e+01 1.498618e+01 1.444617e+01 1168
-1.700489e+01 -2.499901e+01 6.992715e+00 1176
2.263157e+01 1.000739e+01 6.712237e+00 1183
-4.684128e+01 -2.215116e+01 1.140227e+01 1193
-2.696976e+01 -1.980635e+01 1.154330e+01 1196
4.104699e+01 5.937819e+00 2.207907e+01 1210
-4.983924e+01 1.567431e+01 2.295016e+01 1222
1.609178e+00 1.842632e+01 3.904586e+00 1226
-1.825890e+01 1.552863e+01 2.199186e+01 1230
-4.588046e+01 -1.676237e+01 1.104909e+00 1232
2.388632e+01 1.011090e+00 5.509662e+00 1238
4.413332e+01 -3.582424e+00 1.201323e+01 1242
-7.964112e+00 -9.786541e+00 2.834433e+00 1250
4.715542e+01 -1.523690e+01 1.280164e+01 1252
-3.890046e+00 6.512723e+00 2.989238e+01 1256
-4.343558e+00 1.640674e+01 1.543934e+00 1260
3.193477e+01 5.494605e+00 2.431277e+01 1273
-3.013238e+01 -5.605447e+00 1.838315e+00 1278
2.394440e+01 -9.824095e+00 1.629495e+00 1284
-1.983678e+01 3.778624e+00 2.590209e+01 1286
2.956381e+01 9.974441e+00 1.134442e+00 1292
4.835875e+01 2.318681e+01 7.825516e+00 1299
-5.363405e+00 -7.702762e-01 2.719617e+01 1312
-5.597906e+00 -5.419747e+00 1.928917e+01 1323
-2.566574e+01 -2.425373e+01 2.455050e+01 1326
-2.792221e+01 -2.290860e+01 2.348295e+01 1332
2.497123e+01 -2.001531e+01 2.513375e+01 1333
-4.815117e+01 -2.549311e+00 1.795876e+01 1334
1.923442e+01 -1.929838e+01 1.415821e+01 1337
-2.141942e+01 5.831254e+00 4.513460e+00 1340
-8.983375e+00 -1.253250e+01 2.874358e+01 1342
-3.124869e+00 5.747879e+00 1.842533e+01 1346
2.135786e+01 1.570275e+01 1.644477e+01 1350
7.574286e+00 -5.997448e+00 2.533129e+01 1351
3.290706e+01 1.019798e+00 1.871346e+01 1352
-8.999804e+00 -4.813232e+00 1.039347e+01 1356
4.789627e+01 2.111137e+01 2.950515e+01 1361
3.646870e+00 -6.702754e+00 1.421430e+01 1362
-4.687100e+01 5.105305e+00 1.488232e+01 1374
3.101817e+01 8.193723e+00 1.327704e+01 1375
2.885468e+01 1.048162e+01 1.494218e+01 1382
1.547813e+01 -3.086624e+00 2.085380e+01 1385
-2.129417e+00 -2.297560e+01 1.512127e+01 1395
4.936862e+01 2.233776e+01 1.076382e+01 1396
1.340434e+01 1.222693e+01 1.368792e+01 1415
9.816610e+00 -1.830910e+01 1.996460e+01 1420
-1.056754e+01 1.975371e+01 6.484243e+00 1421
1.684704e+01 -1.730958e+01 2.083923e+01 1423
4.926064e+01 -1.803982e+01 1.814139e+01 1428
1.664617e+01 -1.139646e+01 8.290063e+00 1442
4.696505e+01 -4.206466e+00 9.872501e-01 1446
5.788608e+00 -7.178843e-01 1.704049e+01 1451
7.260917e+00 6.626395e+00 1.245022e+01 1455
3.414009e+01 -9.193946e+00 1.649736e+00 1460
8.525494e+00 -1.570968e+01 1.781432e+01 1470
-2.391118e+01 -1.866407e+00 6.667693e+00 1471
-3.374598e+01 -8.380502e+00 2.143056e+01 1472
3.553963e+01 -9.453661e+00 1.333411e+01 1474
-5.427833e+00 -1.302545e+01 1.410111e+01 1478
-4.538281e+01 1.681517e+01 2.038321e+01 1479
-1.831306e+01 -1.231686e+01 1.301372e+01 1493
2.430058e+01 -1.650113e+01 1.098167e+01 1496
-4.869671e+00 -7.776049e+00 2.986288e+01 1500
-4.119306e+01 1.249617e+01 1.300746e+01 1502
1.574260e+01 1.750996e+01 1.680254e+01 1514
-4.037487e+00 -1.086152e+01 2.660681e+01 1516
3.670643e+01 -3.154204e+00 8.198701e-02 1517
-6.456638e+00 2.063236e+01 1.778070e+01 1518
-1.577811e+01 -1.958253e+01 7.705120e+00 1523
4.179013e+01 -1.928682e+01 2.722297e+01 1531
-7.854308e+00 1.861478e+01 3.234923e+00 1546
2.986279e+01 -2.756800e+00 8.171224e+00 1551
2.119454e+00 1.766653e+01 2.632171e+01 1576
-3.718048e+01 1.304856e+01 2.043566e+01 1580
-4.290776e+01 1.731317e+01 1.841732e+01 1582
4.402338e+01 -1.622427e+01 1.948450e+01 1584
-8.112630e+00 -1.332857e+01 1.883601e+01 1589
-3.436316e+01 2.102467e+01 2.804222e+01 1591
-2.358356e+01 2.397926e+01 2.946857e+01 1595
-8.198797e+00 1.113660e+01 2.570625e+01 1598
1.180601e+01 2.076345e+01 1.578980e+01 1606
1.510774e+00 -8.430246e+00 2.189012e+01 1615
1.850239e+01 -1.266617e+01 4.421360e+00 1617
2.905026e+01 -6.135689e+00 1.088880e+01 1620
-1.036863e+01 1.095069e+01 3.625474e+00 1623
-3.774006e+01 -2.303156e+01 9.864025e+00 1634
1.918145e+01 2.414892e+01 2.318927e+01 1642
-8.408921e+00 -4.029129e+00 1.391468e+01 1655
-4.352141e+01 1.540016e+01 3.101313e+00 1667
4.204582e+00 -2.065984e+01 1.945595e+01 1669
5.200619e+00 -8.168410e+00 1.560032e+01 1687
-4.556595e+01 2.405497e+01 2.277722e+01 1688
4.882641e+01 -1.099328e+01 1.003859e+01 1694
-4.201717e+01 -1.004704e+01 8.748654e+00 1701
2.099448e+01 1.723635e+01 2.130791e+01 1709
-4.849532e+01 6.881343e+00 8.662422e+00 1724
4.429896e+01 -6.044035e+00 2.637723e+01 1727
2.395230e+01 1.059104e+01 1.997396e+01 1735
1.219465e+00 6.877863e+00 9.243644e+00 1743
1.669670e+01 3.797650e+00 1.927776e+01 1744
3.025983e+01 7.413310e+00 3.983133e+00 1752
4.260965e+01 1.339721e+01 1.396421e+01 1754
-4.342827e+01 2.168439e+01 1.816563e+01 1756
6.998618e+00 8.239874e+00 2.096016e+01 1757
-4.082570e+01 1.770098e+01 5.640281e-02 1761
2.194559e+01 -3.422511e+00 7.195784e-01 1763
1.583704e+01 -2.348671e+01 2.985828e+01 1772
-4.740116e+01 -2.919592e+00 2.078378e+01 1773
-9.598600e+00 -1.990447e+01 1.594303e+01 1777
3.393078e+01 -1.249129e+01 9.739361e-01 1779
4.242922e+01 -1.142621e+01 2.602705e+01 1782
1.557591e+01 1.432713e+01 1.065401e+01 1784
-3.870112e+01 -8.958413e+00 1.626194e+01 1794
4.826547e+01 2.414521e+01 1.761761e+01 1798
-3.817112e+01 -2.125812e+01 1.863867e+01 1810
-4.952659e+01 7.620187e+00 6.806555e+00 1811
4.525847e+01 -2.494997e+01 1.235337e+01 1819
1.112297e+01 -2.419962e+01 1.673042e+01 1833
3.511692e+01 -6.535100e+00 2.545737e+01 1862
-3.052200e+01 3.455168e+00 1.476771e+01 1874
7.813318e+00 1.457252e+01 2.427884e+00 1876
3.084660e+01 -2.458075e+01 1.384705e+01 1877
2.419527e+01 1.953340e+01 1.738998e+01 1888
4.470841e+01 1.621496e+01 2.257436e+00 1895
-1.855751e+01 5.776080e-01 9.710373e+00 1906
4.350416e+01 -1.240283e+01 2.432222e+01 1908
2.408811e+01 -1.387920e+00 5.771682e+00 1912
-3.480354e+01 1.568977e+01 1.525898e+01 1920
9.235401e+00 1.843457e+01 1.711975e+01 1931
4.124617e+01 9.780315e+00 2.608121e+01 1959
-3.469150e+00 6.035950e+00 1.876815e+01 1968
-2.250932e+01 2.867783e+00 1.655271e+01 1972
-2.905075e+01 2.246381e+01 2.622875e+00 1973
4.197149e+01 2.289654e+00 1.453784e+01 1984
2.125573e+00 -1.025276e+01 1.658752e+01 1987
4.607165e+01 -2.367671e+01 8.857202e+00 1988
1.738448e+01 4.960595e+00 2.653690e+01 1990
4.317106e+01 1.362761e+01 2.145716e+01 1996
1.549600e+01 1.343941e+01 7.476158e+00 1997
-2.982120e+01 -4.729902e+00 2.312085e+01 2002
9.498427e+00 2.928283e+00 2.555229e+01 2009
3.964724e+00 2.454178e+01 1.847544e+01 2029
3.106881e+01 -3.704297e+00 2.796174e+01 2042
1.562626e+01 1.244349e+01 1.364491e+01 2044
-1.100377e+01 -1.656112e+01 2.636530e+01 2054
5.720665e+00 8.737829e+00 8.751729e+00 2057
1.474239e+01 2.479261e+01 2.054510e+01 2062
-1.885097e+01 8.177224e+00 2.085053e+01 2063
4.771365e+01 1.919566e+01 8.537445e+00 2080
-3.110916e+00 1.054131e+01 8.089492e+00 2091
-2.987570e+01 -1.050022e+01 1.812436e+01 2093
2.739844e+01 7.685012e+00 2.447867e+00 2094
-4.098364e+01 1.951905e+01 2.804231e+01 2109
-1.426336e+01 -6.811894e+00 4.924549e+00 2118
-3.234617e+01 2.489123e+01 6.232410e+00 2126
4.282416e+01 9.627426e+00 4.264285e+00 2128
1.133453e+01 -1.513741e+01 1.775734e+01 2129
-5.354525e+00 2.031939e+01 2.365677e+01 2137
8.537041e+00 3.974975e+00 4.435725e+00 2142
3.971272e+01 1.040998e+01 1.459638e+01 2145
-1.438562e+01 -1.642013e+01 1.117066e+01 2153
3.112569e+01 1.549197e+01 1.412109e+01 2154
-2.080710e+01 1.839812e+01 2.083547e+01 2159
7.556036e+00 -1.375854e+00 1.174745e+01 2166
4.061617e+00 -1.734288e+01 2.992940e+01 2177
-4.762546e+01 7.018358e+00 6.866906e+00 2191
6.881196e+00 2.394154e+01 2.266290e+00 2200
-1.279444e+01 -8.910683e+00 9.899475e+00 2210
-4.217862e+01 8.080543e+00 2.165050e+01 2217
1.177855e+01 -5.744621e+00 2.394968e+01 2227
4.498847e+01 4.867524e+00 2.810990e+01 2228
1.881063e+00 -1.233213e+01 2.479747e+01 2233
3.135859e+01 2.706413e+00 4.401446e+00 2234
3.503521e+01 -1.936452e+01 2.384407e+01 2238
-3.673475e+01 1.016084e+01 2.207073e+01 2240
-4.011275e+01 -1.202175e+01 1.947647e+01 2244
-1.227763e+01 1.759492e+01 9.079533e+00 2252
-4.696095e+01 -1.149473e+01 3.264826e+00 2253
-4.903115e+01 8.996963e+00 7.186213e+00 2269
3.275958e+01 -3.145731e-01 6.633827e+00 2270
1.567010e+01 2.076181e+01 2.667011e+01 2287
7.142080e+00 7.142789e+00 1.383706e+01 2292
-3.680845e+01 1.510349e+01 2.557471e+00 2297
-2.314769e+01 -7.388094e+00 2.908259e+01 2307
2.414012e+01 1.008932e+01 8.569616e+00 2314
3.069896e+01 9.990216e+00 1.893284e+01 2334
4.809535e+01 -1.056477e+01 1.813674e+01 2347
8.392897e+00 7.050011e+00 2.754863e+01 2357
-1.616684e+01 2.419042e+01 2.745408e+01 2361
-2.469844e+01 9.767388e+00 2.626847e+01 2372
-2.509915e+01 -1.327777e+01 2.084845e+00 2386
3.729105e-01 2.250818e+01 2.329511e+01 2399
3.419950e+01 -8.719218e+00 3.227759e+00 2408
5.661322e+00 2.333313e+01 1.522065e+00 2425
4.313331e+01 -1.977764e+01 1.860097e+01 2426
2.300136e+01 -3.802189e+00 2.948725e+01 2428
-3.659180e+01 -8.920190e+00 1.993915e+01 2442
1.935378e+01 2.077973e+01 2.437133e+01 2451
-1.452548e+01 -1.658671e+01 2.361510e+01 2452
-1.750503e+01 -1.794947e+01 2.152640e+01 2454
-8.476127e+00 2.496428e+01 3.688251e+00 2461
4.067874e+01 -1.741756e+01 2.698672e+01 2494
-2.980007e+01 -5.199721e+00 1.989390e+01 2520
3.847109e+01 -2.471720e+01 1.529202e+01 2526
4.829342e+01 -1.490898e+01 1.220852e+00 2527
-2.989002e+01 1.750270e+00 2.058908e+00 2528
1.983152e+01 -1.882117e+01 2.577205e+01 2542
-3.409379e+01 1.057587e+01 2.015427e+01 2544
-1.865862e+01 1.208281e+01 1.951172e+01 2556
-1.728464e+01 -2.425499e+00 2.736388e+01 2566
-6.294700e+00 -1.180391e+01 4.307815e+00 2571
-4.219222e+01 -2.489454e+01 1.211063e+01 2584
-1.115084e+01 9.186602e+00 1.511387e+01 2586
2.008888e+01 -8.804387e+00 2.342746e+01 2587
-4.030542e+01 2.249710e+01 2.929405e+01 2594
4.039081e+01 -3.759995e+00 1.446908e+01 2595
-5.225831e+00 1.548155e+01 7.254707e+00 2597
6.355875e+00 1.737055e+01 1.207662e+01 2598
-1.300719e+01 -2.335485e+01 2.847771e+00 2607
-2.251624e+01 -2.202299e+01 2.575707e+01 2633
4.880433e+01 1.217147e+01 2.261558e+01 2634
2.339078e+01 2.344175e+01 2.657741e+01 2637
1.966748e+01 2.245900e+01 1.149463e+01 2640
1.508986e+01 -1.315067e+01 1.069902e+01 2644
-1.680855e+01 -9.046023e+00 4.860294e+00 2646
-1.061606e+01 -1.681221e+01 2.674729e+01 2651
-4.869004e+01 -1.435523e+01 1.430379e+01 2653
-4.389413e+01 4.688718e+00 1.783192e+01 2670
-2.528201e+01 2.484031e+01 3.631209e+00 2691
-5.903936e+00 1.028246e+01 3.785788e+00 2704
-1.955159e+01 -1.988695e+01 1.802130e+01 2710
4.008714e+01 -5.103314e+00 2.689232e+01 2713
4.743015e+01 -1.735448e+01 2.159072e+01 2715
2.246081e+01 -5.220508e-01 7.636308e-01 2717
3.011187e+01 1.598627e+01 2.252941e+01 2731
3.955025e+01 -1.367988e+01 2.725216e+01 2734
2.829278e+01 -1.652816e+01 3.251095e-02 2739
-2.747734e+01 6.718613e+00 1.736363e+01 2752
-4.446176e+01 6.379426e+00 1.457296e+01 2760
-2.202494e+01 -2.221863e+01 2.791212e+01 2765
4.165631e+01 1.085530e+01 2.248298e+00 2769
3.738500e+01 8.866184e+00 2.517811e+01 2771
-2.856431e+01 -2.057292e+01 2.703021e+01 2772
2.073670e+01 -1.941414e+01 3.851647e+00 2782
9.615428e-01 -9.469889e+00 2.747377e+01 2787
-2.573229e+01 5.213144e+00 2.254039e+00 2795
1.535290e+01 -1.010369e+01 2.559159e+01 2800
-5.316857e+00 -2.209960e+01 7.305836e+00 2814
7.238123e+00 1.640149e+01 2.875209e+01 2816
4.863777e+01 1.429326e+01 2.233002e+01 2819
-4.107210e+01 2.239114e+01 4.061483e+00 2836
-3.519437e+01 -1.095359e+00 8.630896e+00 2848
4.685902e+01 1.865857e+01 2.307111e+01 2862
-4.314496e+01 1.762599e+00 1.923224e+01 2866
-1.490237e+01 1.022074e+01 6.283790e+00 2868
-4.973408e+01 -4.414930e+00 1.185908e+01 2874
-2.046019e+01 -2.380322e+01 4.108506e+00 2877
1.567709e+01 6.825506e-01 5.120975e+00 2879
4.108167e+01 2.116729e+01 2.182401e+01 2883
4.160279e-02 1.638551e+01 6.736844e+00 2906
-1.640246e+01 1.090121e+01 2.583955e+01 2907
3.221834e+01 1.741680e+01 1.937952e+00 2923
-3.338413e+01 -2.098498e+01 2.076180e+01 2926
-2.866501e+01 -1.359149e+00 1.578170e+01 2940
-3.301920e+01 1.682498e+01 1.685845e+01 2943
3.615527e+01 -1.411087e+01 1.953814e+01 2952
2.269142e+01 -5.350660e+00 1.774017e+00 2956
8.904526e-01 -2.054566e+01 1.092573e+01 2970
2.166559e+01 -1.199187e+01 2.858454e+01 2982
1.088320e+01 9.981871e+00 1.683394e+01 2990
-3.597158e+01 1.409288e+01 1.354012e+01 2995
-2.271984e+01 5.220873e+00 1.222082e+01 2998
-3.144112e+01 2.492981e+01 7.685930e+00 3005
-1.991161e+01 1.817428e+00 9.588752e-01 3008
8.521244e-01 5.681350e+00 2.832742e+01 3025
-4.288740e+01 5.666869e+00 2.331594e+01 3028
1.407169e+01 1.992565e+01 2.217362e+01 3059
-4.852220e+01 -1.839834e+01 2.326048e+01 3067
-5.497584e-01 -9.581682e+00 2.009517e+01 3081
1.756986e+01 7.650738e-02 1.896830e+01 3083
-2.624994e+01 -1.135576e+01 1.235341e+01 3089
4.519338e+01 -1.414845e+01 1.888344e+01 3094
-4.026052e+01 -1.773391e+01 1.463082e+01 3103
5.414026e+00 1.190340e+01 9.852364e+00 3104
1.408825e+01 1.666979e+01 6.898183e+00 3123
-2.241310e+01 -1.181124e+01 2.991063e+01 3134
-4.408045e+01 -1.712562e+00 2.949049e+01 3153
2.523141e+01 -3.487178e+00 5.465695e-01 3156
4.255101e+01 -7.925726e+00 3.763274e+00 3157
-4.456533e+01 -1.543418e+01 1.697403e+00 3198
7.433942e+00 -7.120597e+00 2.440068e+01 3200
4.194344e+01 2.499589e+01 2.731805e+01 3209
3.724962e+01 2.275689e+01 2.631589e+01 3218
-2.710460e+01 1.702301e+01 1.198667e+00 3223
-1.581052e+01 2.497996e+00 1.289759e+01 3244
2.666144e+01 5.021020e+00 1.906354e+01 3248
2.139544e+01 -1.426310e+01 2.504017e+01 3254
4.598603e+01 4.661917e+00 1.170510e+01 3257
4.313102e+01 -4.225618e+00 1.094777e+01 3259
-9.060990e-02 1.959327e+01 2.526391e+01 3262
4.489916e+01 -5.673211e+00 1.846141e+01 3263
2.831274e+01 -1.689101e+01 3.521484e+00 3273
-7.249779e+00 -2.107387e+01 2.197795e+01 3285
3.813410e+01 -1.582868e+01 3.208955e+00 3308
2.363341e+01 1.529000e+01 5.611912e+00 3317
-4.233431e+01 -7.505813e+00 6.409313e-01 3321
2.055426e+01 8.554251e+00 2.765296e+00 3333
2.942455e+01 1.360748e+01 1.444044e+01 3347
1.842868e+01 -9.682774e+00 2.850973e+00 3348
-2.344986e+01 -2.028791e+01 2.863814e+00 3353
-2.342153e+01 -1.990375e+01 2.785460e+01 3357
3.381303e+01 -7.327358e+00 1.001233e+01 3366
-2.493531e+01 1.188048e+01 1.161151e+01 3375
4.934732e+01 8.930273e+00 2.659182e+01 3383
3.871642e+01 -5.947974e+00 1.793167e+00 3398
-4.306987e+01 1.608573e+01 4.987189e+00 3402
-4.836154e+01 1.097788e+01 2.780178e+01 3415
-2.640925e+01 1.759874e+01 2.021860e+00 3431
-4.089383e+00 -8.212573e+00 2.058161e+01 3433
2.330084e+01 -1.594994e+01 2.975181e+01 3445
-4.112620e+01 -2.418647e+01 1.869849e+01 3447
2.810664e+01 1.869664e+01 2.379676e+01 3456
-3.139234e+01 -7.849121e+00 2.314243e+01 3460
-4.662201e+01 2.000457e+01 2.170312e+01 3461
3.981826e+01 -2.431548e+01 1.929927e+01 3463
-4.633302e+00 7.821407e+00 2.954355e+01 3464
-4.082218e+01 -1.938240e+00 1.278399e+01 3484
1.543295e+01 -2.450264e+01 3.354725e+00 3487
2.019792e+01 -7.553070e+00 2.331078e+01 3488
2.058547e+01 2.232840e+00 7.091555e+00 3491
3.062157e+01 -3.000193e+00 1.812964e+01 3492
-1.568348e+01 2.055102e+00 2.750820e+01 3498
3.485865e+00 -1.211348e+01 1.211665e+01 3503
-1.758869e+00 1.282152e+01 1.972998e+01 3527
-4.489760e+01 -3.650353e+00 7.830631e+00 3532
2.923046e+01 3.543728e-01 7.423610e+00 3535
-3.915955e+01 -1.862465e+01 1.966581e+01 3538
-2.667464e+01 -6.272965e+00 1.799660e+01 3562
4.632951e+01 -1.792619e+01 1.445794e+01 3578
2.123562e+01 8.799338e+00 1.020467e+01 3593
4.767189e+01 3.908034e+00 1.725424e+01 3594
-3.304251e+01 -2.204060e+01 4.305650e+00 3604
-2.320050e+01 -1.649424e+01 1.536600e+01 3612
1.130710e+01 -1.214085e+01 2.559637e+01 3614
3.979093e+01 -6.751056e+00 1.417832e+01 3621
-3.968988e+01 -1.910459e+00 8.268245e+00 3639
-3.419251e+01 1.204542e+01 1.965808e+00 3652
-1.086270e+01 1.378201e+00 1.061927e+01 3659
-2.223318e+01 -1.642161e+01 1.506101e+01 3663
1.513507e+01 2.233521e+01 2.023679e+01 3669
4.293297e+01 -1.563862e+00 2.271092e+00 3675
3.968039e+01 -5.594108e+00 1.252684e+00 3677
-6.127924e+00 -1.731276e+01 4.013332e+00 3679
-3.718681e+01 7.040708e+00 1.372805e+01 3682
-4.167121e+01 -1.301107e+01 1.795386e+01 3685
-3.426919e+01 9.549143e-01 2.625725e+00 3686
4.012532e+01 -1.289747e+01 8.069263e+00 3713
4.105355e+01 -2.788852e+00 2.608223e+01 3717
-2.631310e+01 1.170645e+01 2.273989e+01 3727
-2.764398e+01 -1.265871e+01 2.724484e+01 3729
-3.118282e+01 -2.434350e+01 9.597123e+00 3730
2.030816e+01 -1.093858e-01 2.003399e+01 3733
-1.220214e+01 1.900060e+00 6.282428e+00 3734
2.048523e+01 1.824109e+01 2.896935e+01 3736
2.649472e+01 8.727294e-01 7.471197e+00 3741
7.101904e+00 1.097961e+01 2.699222e+01 3747
-1.079236e+01 -1.698722e+01 1.406645e+01 3758
-2.650056e+01 -8.850013e+00 2.714443e+01 3760
-8.910891e+00 -1.815238e+01 1.428523e+01 3762
3.323739e+01 1.825971e+01 2.705531e+01 3771
-3.685272e+01 -4.827604e+00 2.022092e+01 3780
4.155384e+01 2.850042e+00 8.350173e+00 3788
-1.353712e+01 -1.379484e+01 1.614354e+00 3798
1.896088e+01 -1.786247e+01 2.790231e+01 3800
5.485803e+00 -1.421515e+01 1.442368e+01 3801
2.597437e+01 1.880995e+01 1.839831e+01 3804
-2.391594e+01 8.318616e+00 1.299205e+01 3820
6.368954e+00 6.732665e-01 2.847764e+01 3824
3.570725e+01 -6.481887e+00 3.534570e+00 3836
5.387190e+00 -1.277183e+01 3.763373e+00 3844
-4.694679e+01 1.446301e+01 2.550953e+01 3849
-2.399904e+01 -5.176585e+00 1.989479e+01 3854
2.812231e+01 1.430046e+01 2.016443e+01 3856
3.595661e+01 1.878298e+01 1.784141e+00 3857
3.560314e+00 2.042245e+01 1.683362e+01 3858
2.907865e+01 1.422790e+01 1.505537e+01 3859
-2.002343e+01 -2.303468e+01 1.702460e+01 3865
4.334285e+01 1.915961e+01 1.769170e+01 3880
2.859764e+01 -6.885779e+00 8.544153e+00 3889
4.806790e+01 1.761444e+01 2.126693e+01 3894
1.114769e+01 -2.061447e+01 1.721573e+00 3910
7.170175e-01 -2.065448e+01 2.079241e+01 3911
4.570106e+01 1.341276e+01 2.139911e+01 3919
3.884063e+01 -2.278367e+01 1.847302e+01 3929
4.138688e+01 -5.908181e+00 2.777746e+01 3930
-3.511200e+01 2.107058e+01 2.088522e+01 3935
3.220391e+01 -1.866575e+00 5.552050e+00 3953
1.298940e+01 6.922795e+00 2.467132e+01 3957
2.537697e+01 2.071307e+01 2.632086e+01 3963
1.366093e+00 8.432690e+00 1.281983e+01 3969
2.238341e+01 2.041600e+01 9.702743e-01 3973
-3.678526e+01 -1.364358e+01 1.855771e+01 3984
-1.988120e+01 -9.438565e+00 2.207827e+01 3989
-3.416870e+01 8.513814e-01 6.079516e+00 4011
3.346808e+01 1.856136e+01 1.159848e+01 4016
3.018921e+00 -3.766496e-01 1.797771e+01 4017
-1.839063e+01 -6.933353e+00 1.489018e+01 4020
-4.972671e+01 9.587399e+00 2.078611e+01 4029
3.334476e+01 -9.812630e+00 2.875003e+01 4034
-9.963302e+00 7.875041e+00 1.387377e+01 4036
-5.249980e+00 4.593221e-01 4.561048e+00 4037
-1.675896e+01 -5.952041e+00 9.901687e+00 4039
-9.892955e+00 4.459791e+00 2.664993e+01 4046
4.188252e+01 -1.866648e+01 2.876301e+01 4061
4.770714e+01 1.234351e+01 2.202100e+01 4064
1.601501e+01 9.147784e+00 2.562591e+01 4066
-4.171315e+01 -9.045776e+00 7.437412e+00 4079
2.323545e+01 1.356077e+01 7.081084e+00 4080
-3.837557e+01 7.980348e+00 1.210228e+01 4088
-2.873830e+01 -2.075476e+01 9.906778e+00 4104
3.841979e+01 -1.666860e+01 2.178522e+01 4106
-3.245074e+01 -2.496390e+01 5.371034e+00 4130
2.033609e+01 1.852995e+01 1.163091e+01 4144
-2.877473e+01 -3.611572e+00 1.821833e+01 4152
3.978084e+01 1.459101e+01 2.454512e+01 4161
4.576834e+01 1.762058e+01 2.033674e+01 4163
-1.726451e+01 -2.339357e+01 1.676064e+01 4165
3.678524e+01 -5.373710e+00 5.702387e+00 4170
2.010233e+00 4.468056e+00 2.008872e+01 4172
-1.066612e+01 -3.051737e+00 1.605029e+01 4178
1.453669e+01 1.585760e+01 1.187460e+01 4183
-7.446786e+00 1.150761e+01 2.875674e+01 4184
1.995504e+01 -1.653083e+01 3.596668e+00 4194
-2.098732e+01 6.699971e+00 2.809770e+01 4201
1.420860e+01 -2.339444e+01 1.523708e+01 4209
-9.345650e+00 -2.389973e+01 3.324755e+00 4211
7.855839e+00 2.136521e+01 2.268828e+01 4239
1.576928e+01 1.602731e+01 3.462105e+00 4245
3.240752e+01 5.726844e+00 2.231104e+00 4248
1.980619e+01 -2.025768e+01 1.431902e+01 4252
-1.862924e+01 -3.240998e+00 2.626254e+01 4256
-1.529892e+01 1.534564e+01 6.790044e+00 4265
-4.277837e+00 2.136037e+01 2.065721e+01 4266
1.766206e+01 8.550397e+00 2.676246e+01 4268
3.703594e+01 -1.759767e+01 2.240169e+01 4302
4.512687e+01 1.610501e+01 1.647210e+01 4304
4.970559e+01 -1.086862e+01 3.205150e+00 4306
-4.422737e+01 3.391897e-01 1.950690e+01 4308
-3.192667e+01 2.914294e+00 3.623822e+00 4314
3.101292e+01 -8.133098e+00 2.460969e+01 4318
2.969994e+01 9.552569e+00 1.771959e+01 4325
4.600923e+01 4.704304e+00 2.486683e+01 4327
-2.186532e+01 -1.537869e+01 2.691097e+01 4332
1.186687e+01 -1.252263e+01 8.107311e+00 4340
-1.393765e+01 4.590908e+00 2.182956e+01 4347
2.088871e+01 1.151538e+01 2.990615e+01 4348
-3.082822e+01 -3.062711e-01 4.355543e-01 4351
3.982433e+00 -6.761770e+00 1.234158e+01 4352
-2.787820e+01 1.084876e+01 2.886959e+01 4353
1.299132e+01 1.731014e+01 2.818441e+00 4359
-4.947735e+01 1.456715e+01 9.997508e+00 4360
-2.423585e+01 1.003214e+01 4.946833e+00 4370
3.980128e+01 -9.095014e+00 5.006197e+00 4378
-2.896413e+01 1.993210e+01 1.100126e+01 4389
1.258117e+01 -2.198298e+01 6.623406e+00 4395
2.140769e+00 1.443332e+01 2.478787e+01 4396
-1.861007e+01 2.144664e+01 2.195220e+01 4402
-2.109984e+00 -2.321293e+00 1.688714e+01 4404
3.816425e+01 -9.627729e+00 3.037792e+00 4408
4.178932e+01 -2.130657e+01 2.217508e+01 4409
1.084075e+01 9.878990e+00 6.367076e-01 4423
-7.431702e+00 -5.190068e+00 2.657083e+01 4432
-2.979480e+01 1.646321e+01 1.689744e+01 4434
-3.983653e+01 8.304942e-01 1.217274e+01 4435
1.480612e+01 1.070917e+01 1.455521e+01 4448
-3.310354e+01 1.254832e+01 2.947580e+01 4453
-4.689800e+01 1.011766e+01 2.308112e+01 4462
-2.098630e+01 2.006120e+01 2.775612e+01 4470
-2.053343e+01 2.328537e+01 3.980515e+00 4480
2.129469e+01 1.965546e+01 1.418947e+01 4481
2.797221e+01 1.627080e+00 2.424475e+01 4485
-1.525694e+01 1.331022e+01 1.583738e+01 4488
1.035506e+01 -9.526779e+00 9.445932e+00 4511
4.909109e+01 -5.125368e+00 1.749496e+01 4512
1.806746e+01 -7.630364e-01 1.939649e+01 4515
2.697392e+01 2.672191e+00 1.069510e+01 4524
-1.106421e+01 -2.321165e+01 1.211140e+01 4534
-5.665685e+00 1.003506e+01 2.446137e+01 4537
-2.042634e+01 1.237153e+01 6.937947e+00 4538
1.591443e+00 1.809692e+00 1.911337e+01 4541
-3.149276e+01 1.329196e+01 9.438867e+00 4544
4.720877e+01 -3.619597e+00 2.942036e+01 4553
-9.835286e+00 2.177310e+01 1.524964e+01 4578
1.280896e+01 1.204002e+01 1.930179e+01 4584
4.937379e+01 -5.996391e+00 1.153284e+01 4595
-4.422271e+01 5.843061e+00 1.309740e+01 4602
2.535640e+01 -1.177442e+01 8.717630e+00 4606
4.559362e+01 1.877665e+01 2.467326e+00 4614
4.114458e+01 -2.495645e-01 4.764897e+00 4618
3.553814e+00 -3.138488e+00 6.903403e+00 4620
-3.240758e+01 -5.263778e+00 6.870253e-02 4621