Title = Snapshot #27
Variables=X Y Z PartID
Zone I= 6409, F=POINT
8.905833e+00 -1.099820e+01 2.049315e+01 2
9.237151e+00 1.108740e+01 2.781427e+01 8
7.932570e+00 2.093197e+01 2.166539e+01 12
-6.866952e+00 6.109842e+00 9.729920e+00 14
-3.387769e+01 1.938532e+01 9.429393e-01 17
-2.354557e+01 1.251895e+01 8.797961e+00 18
-3.616477e+01 -2.257405e+01 1.996823e+01 21
-1.964531e+01 -1.462988e+01 2.542163e+01 23
1.803228e+01 -1.186753e+01 1.485410e+01 31
-1.680187e+01 -5.351290e-01 4.438980e+00 41
6.107054e+00 7.306105e+00 1.310680e+01 42
-2.253812e+01 5.055224e+00 2.204913e+01 45
-4.493950e+01 -2.133606e+01 2.688786e+01 74
-2.929266e+01 -1.288489e+01 7.870764e+00 80
2.819867e+00 2.388250e+01 1.305579e+01 82
-4.887266e+01 -1.499660e+01 2.502493e+01 83
2.459886e+01 1.333747e+01 7.347290e+00 91
2.889374e+01 -1.157270e+01 2.225429e+01 95
3.193871e+01 1.325657e+01 2.532369e+01 98
4.431889e+01 1.220121e+01 1.689595e+01 135
6.380333e+00 -8.232162e+00 1.634790e+01 137
3.274831e+01 8.869306e+00 1.323901e+01 150
-1.852101e+01 -5.975781e+00 8.525732e+00 158
-2.286354e+01 -2.389757e+01 1.578601e+01 166
2.874725e+01 9.437271e-01 1.516053e+01 171
2.287097e+01 1.299330e+01 5.285443e+00 181
-1.009906e+01 6.437708e+00 1.113590e+01 214
-1.949491e+01 2.093623e+01 6.701181e+00 217
-4.125334e+01 -1.434855e+01 2.553691e+01 219
1.304926e+00 2.590809e+00 1.033991e+01 233
-4.596664e+01 1.558337e+01 8.675053e+00 234
2.185978e+01 -1.522911e+01 5.011772e+00 257
-4.389032e+01 -1.959907e+01 2.052515e+01 279
8.354788e+00 2.518301e+00 1.977063e+01 295
-4.439189e+01 -1.811548e+01 3.773314e+00 309
3.689311e+01 -1.925971e+01 6.671357e+00 317
7.648681e+00 6.144203e-01 2.562511e+01 319
8.942079e+00 -1.864147e+01 2.446962e+01 321
-4.230159e+01 1.504941e+01 1.830715e+01 325
-4.934061e+01 -1.271392e+01 1.611146e+00 329
3.431035e+01 2.056759e+01 2.979419e+01 337
-3.181276e+01 -1.108150e+01 7.863401e+00 340
4.167045e+01 2.370258e+01 2.841641e+01 352
4.498019e+01 1.455091e+01 1.749211e+01 363
-1.321889e+01 2.351300e+01 3.318283e+00 373
4.255374e+01 4.445526e-01 2.898041e+01 375
-2.657618e+01 1.225416e+01 4.453727e+00 396
1.576014e+01 1.036293e+01 1.170070e+01 412
-1.386105e+01 -1.942823e+01 2.413380e+01 425
4.304713e+00 1.417330e+01 5.172185e-01 426
-4.795336e+00 1.630281e-01 8.734213e+00 427
1.977803e+01 1.044643e+01 2.367188e+01 441
1.852888e+01 1.597189e+01 2.691181e+01 443
9.505955e+00 1.961571e+01 2.543262e+01 454
2.427736e+01 1.014808e+01 2.570384e+01 457
-2.924066e+00 2.263399e+01 1.865689e+01 467
3.408881e+01 -1.486702e+01 8.224818e+00 477
3.750396e+01 3.767522e+00 4.903293e+00 504
-8.934316e+00 5.779260e+00 1.488309e+01 505
1.233994e+01 1.363280e+01 2.958536e+01 506
2.462008e+00 -1.335654e+01 1.080398e+01 510
-7.471171e+00 1.081924e+01 8.148674e+00 521
-1.720945e+01 -2.072804e+01 8.518797e+00 524
-3.670593e+01 6.456616e+00 2.502257e+01 536
1.591731e+01 1.876059e+01 1.974721e+00 537
-1.121596e+01 -1.110057e+01 2.829856e+01 555
4.741909e+01 1.451742e+01 2.756448e+01 558
-1.225220e+01 5.106775e+00 2.922079e+01 559
2.739581e+01 1.271307e+01 2.917697e+01 564
3.876886e+01 1.870625e+01 1.652377e+01 578
-6.452281e+00 2.057530e+01 4.104326e-01 581
-4.703286e+01 1.745519e-01 1.635620e+01 582
-2.785755e+01 1.388903e+01 1.369818e+01 588
4.410466e+01 2.152370e+01 1.541612e+01 591
-2.472075e+00 1.574002e+01 2.731028e+01 594
-4.968998e+01 6.422983e+00 3.276790e+00 599
-8.593409e+00 -2.371140e+01 8.467756e-01 611
-4.283523e+01 -7.149088e+00 1.469577e+01 626
3.997991e+01 1.737883e+01 2.616109e+00 629
-8.737432e+00 2.294382e+01 2.653037e+01 634
9.822241e-02 -1.401005e+01 6.514805e+00 636
-1.904510e+01 -7.901708e+00 2.229461e+01 640
1.433969e+01 2.148845e+01 2.983486e+01 642
2.536161e+01 1.595508e+01 2.025705e+00 650
4.818054e+01 -2.382214e+01 9.653904e+00 657
-1.296234e+01 -1.905368e+00 2.108084e+01 661
-4.248293e+01 -7.745048e+00 8.746256e+00 667
1.123847e+01 -1.190390e+01 2.328858e+01 674
2.854590e+01 -1.220947e+01 2.972633e+00 675
5.416334e+00 -1.534837e+01 1.417167e+01 686
4.042406e+01 1.097299e+00 1.977417e+01 687
1.768059e+01 -5.794258e+00 2.765409e+01 688
-2.469354e+01 -1.330480e+01 2.128355e+01 691
-2.748219e+01 -6.465772e+00 8.726800e+00 697
-2.774691e+01 1.601286e+01 1.312925e+01 701
-2.276806e+01 -9.953173e+00 2.670629e+01 702
-1.550195e+01 1.691870e+01 2.534947e+01 704
4.472415e+01 2.186408e+01 1.068177e+01 723
3.148829e+01 1.554494e+01 1.977192e+01 724
1.588642e+01 1.264719e+01 1.118130e+01 729
-5.752801e+00 -7.997091e+00 2.493488e+01 731
-3.435378e+01 2.499958e+01 2.979313e+01 733
-4.783037e+01 -2.142221e+01 7.883665e+00 739
-2.415087e+01 1.490868e+01 1.581284e+01 743
3.348428e+01 1.069104e+01 2.714700e+01 747
-5.332947e+00 -6.869453e+00 4.120897e+00 749
3.114182e+01 -1.185576e+01 1.064546e+01 752
2.000671e+01 1.095088e+01 2.769115e+01 754
-2.344537e+01 9.343290e-01 1.987675e+01 763
2.138105e+00 -1.199118e+01 3.380278e+00 776
-3.835479e+01 -2.433231e+01 5.139917e+00 782
3.514133e+01 -7.709943e+00 1.244061e+01 783
-1.792718e+01 7.115737e+00 7.236152e+00 791
-2.530410e+01 1.808299e+01 2.423887e+01 793
1.655797e+00 1.665413e+01 2.584178e+01 797
8.800330e+00 -3.951210e+00 2.631153e+01 814
1.370573e+01 -1.070222e+01 2.725024e+01 823
3.255407e+01 1.391794e+00 1.704138e+01 841
-4.433497e+01 -1.820538e+01 4.524605e+00 848
2.628358e+01 4.105910e+00 2.588608e+01 852
3.016436e+00 -6.650741e+00 4.568075e+00 853
1.276335e+01 6.531657e+00 1.119219e+01 860
1.668041e+01 -5.730756e+00 3.520478e+00 862
1.671388e+01 1.336868e+01 1.052136e-01 865
-5.908166e-01 1.239252e+01 1.538882e+01 871
-1.136500e+01 -1.972203e+01 1.808863e+01 879
7.933816e+00 -1.643090e+01 2.205948e+01 890
-3.589443e+01 2.152035e+01 4.218640e+00 891
-3.237104e+01 1.960899e+01 2.931859e+01 892
-3.109916e+01 1.125091e+01 1.927061e+01 893
-1.715974e+00 1.457988e+00 1.766612e+01 899
1.824069e+01 -2.306552e+01 1.589330e+01 901
4.005936e+01 5.439686e+00 1.243136e+00 903
-2.733272e+01 9.099259e+00 1.638303e+01 918
-3.705582e+01 -5.577889e+00 2.288570e+01 928
-1.025977e+01 2.421538e+01 2.536182e+01 939
-3.127481e+01 -1.143710e+01 1.182980e+01 961
-7.274945e+00 -7.157775e+00 2.978181e+01 971
-1.814376e+01 -5.662394e+00 2.950036e+01 973
1.708743e+01 -2.472209e+01 1.492702e+01 974
1.573916e+01 3.874295e-01 2.273252e+01 980
-4.732488e+00 -1.375641e+01 2.055780e+00 984
2.543147e+01 1.795527e+01 2.740283e+01 994
-3.310716e+01 -8.932852e+00 6.332391e+00 1000
7.541392e+00 9.464491e+00 2.945129e+01 1005
-3.202045e+01 9.405004e+00 2.247630e+01 1010
-1.408821e+01 1.312385e+01 2.822471e+01 1013
-3.818059e+01 6.267378e+00 2.563717e+01 1019
-1.611166e+00 -1.499110e+01 1.478886e+00 1024
-2.270002e+01 -1.005246e+01 2.431961e+01 1033
4.749648e+01 7.038914e+00 2.317865e+01 1046
1.037668e+01 2.238540e+01 9.046116e+00 1054
1.161940e+00 -7.571189e+00 2.690361e+01 1056
-3.615916e+01 2.349337e+01 4.009138e+00 1058
-4.806036e+01 2.941218e+00 4.466912e+00 1073
2.198039e+01 2.257601e+01 4.805312e+00 1091
2.451894e+01 1.960111e+01 5.477785e+00 1096
-9.921448e+00 -1.150074e+01 2.538196e+01 1100
3.282456e+00 1.090308e+01 9.480668e+00 1119
2.091721e+01 1.730983e+01 7.004106e+00 1133
-2.757453e+01 1.972591e+01 1.483663e+01 1137
1.797959e+01 1.184728e+01 3.298053e+00 1140
-3.148677e+01 -1.645212e+01 1.464534e+01 1147
1.706661e+01 1.563388e+01 1.418893e+01 1168
-4.730789e+01 -2.218926e+00 9.705088e+00 1174
-1.384370e+01 -2.414081e+01 6.327572e+00 1176
2.590481e+01 1.026052e+01 6.977546e+00 1183
-4.170765e+01 -2.199470e+01 1.054925e+01 1193
-2.597407e+01 -2.101313e+01 1.182943e+01 1196
-4.880920e+01 6.155913e-01 1.980212e+01 1198
4.529089e+01 5.146560e+00 2.255713e+01 1210
-4.715620e+01 1.532163e+01 2.319176e+01 1222
4.061177e+00 1.801523e+01 3.951475e+00 1226
-1.469555e+01 1.461216e+01 2.042901e+01 1230
-4.409101e+01 -1.664016e+01 1.370305e+00 1232
2.645373e+01 1.252651e+00 5.962929e+00 1238
4.597869e+01 -3.182019e+00 1.187928e+01 1242
-4.683933e+00 -1.065645e+01 2.543727e+00 1250
4.888507e+01 -1.441357e+01 1.298405e+01 1252
-1.816141e+00 1.603293e+01 9.688098e-01 1260
3.545013e+01 5.368929e+00 2.444057e+01 1273
-2.790102e+01 -5.856991e+00 1.341097e+00 1278
2.593779e+01 -9.589009e+00 1.750093e+00 1284
-1.573623e+01 4.523100e+00 2.503329e+01 1286
3.127199e+01 9.790207e+00 1.435930e+00 1292
-2.407080e+00 -5.374679e-01 2.829979e+01 1312
-2.500329e+00 -5.280834e+00 2.042201e+01 1323
-1.957914e+01 -2.323499e+01 2.421976e+01 1326
-2.229827e+01 -2.194460e+01 2.373298e+01 1332
2.918789e+01 -2.061359e+01 2.471805e+01 1333
-4.573342e+01 -3.577821e-01 1.826259e+01 1334
2.089658e+01 -1.871690e+01 1.503835e+01 1337
-1.894252e+01 4.211916e+00 4.053740e+00 1340
-5.883713e+00 -1.423971e+01 2.783800e+01 1342
1.984803e-01 5.162961e+00 1.991102e+01 1346
2.461888e+01 1.663731e+01 1.617964e+01 1350
1.046675e+01 -5.758755e+00 2.659987e+01 1351
3.629423e+01 8.923477e-01 1.851565e+01 1352
-5.586765e+00 -4.791053e+00 1.209287e+01 1356
7.606209e+00 -6.291507e+00 1.464169e+01 1362
-4.451414e+01 5.362815e+00 1.547924e+01 1374
3.353289e+01 8.007813e+00 1.266290e+01 1375
3.236314e+01 1.038826e+01 1.446489e+01 1382
1.794599e+01 -2.618004e+00 2.035419e+01 1385
-2.784662e-01 -2.371755e+01 1.556256e+01 1395
1.538486e+01 1.235866e+01 1.366603e+01 1415
1.234551e+01 -1.850849e+01 1.940750e+01 1420
-7.601865e+00 1.971269e+01 6.472110e+00 1421
1.948554e+01 -1.779084e+01 2.008509e+01 1423
1.922549e+01 -1.164997e+01 8.620823e+00 1442
-4.998011e+01 2.291031e+01 1.834400e+01 1445
4.946593e+01 -4.807205e+00 1.061711e+00 1446
8.432472e+00 -9.122346e-02 1.771185e+01 1451
9.455406e+00 7.616543e+00 1.325871e+01 1455
3.574695e+01 -9.166693e+00 1.573558e+00 1460
1.090181e+01 -1.622730e+01 1.834226e+01 1470
-2.090079e+01 -3.757473e+00 6.193563e+00 1471
-2.912047e+01 -9.171055e+00 2.239810e+01 1472
3.723347e+01 -9.001354e+00 1.390822e+01 1474
-9.750103e-01 -1.376697e+01 1.458827e+01 1478
-4.271696e+01 1.730340e+01 2.199835e+01 1479
-1.678070e+01 -1.136426e+01 1.235501e+01 1493
2.714362e+01 -1.578130e+01 1.182980e+01 1496
-3.776947e+01 1.282423e+01 1.493253e+01 1502
1.820853e+01 1.796723e+01 1.688715e+01 1514
-8.214417e-01 -1.161636e+01 2.769430e+01 1516
3.698940e+01 -3.031200e+00 7.428839e-02 1517
-3.266274e+00 2.123084e+01 2.000361e+01 1518
-1.290735e+01 -1.937489e+01 7.549822e+00 1523
4.571845e+01 -1.846664e+01 2.805082e+01 1531
-4.980161e+01 -9.557654e+00 1.503189e+01 1543
-5.042490e+00 1.804553e+01 3.107803e+00 1546
3.191115e+01 -3.179953e+00 8.065962e+00 1551
-4.747658e+01 1.099148e+01 2.499767e+01 1562
6.364592e+00 1.762091e+01 2.795858e+01 1576
-3.308617e+01 1.212683e+01 2.170670e+01 1580
-3.985162e+01 1.640356e+01 2.025772e+01 1582
4.837504e+01 -1.657822e+01 1.984093e+01 1584
-4.579251e+00 -1.265018e+01 1.987783e+01 1589
-2.900875e+01 2.143690e+01 2.924363e+01 1591
-1.871515e+01 2.385916e+01 2.833324e+01 1595
-3.746178e+00 1.042537e+01 2.526832e+01 1598
1.468519e+01 2.147096e+01 1.602919e+01 1606
4.082267e+00 -8.812848e+00 2.250851e+01 1615
2.055276e+01 -1.196430e+01 4.393674e+00 1617
3.198638e+01 -6.052727e+00 1.107356e+01 1620
-7.267040e+00 1.135120e+01 5.361011e+00 1623
-3.284900e+01 -2.394179e+01 1.181486e+01 1634
2.289189e+01 2.319660e+01 2.341828e+01 1642
-4.539935e+00 -3.881297e+00 1.516589e+01 1655
-4.054710e+01 1.598301e+01 3.648201e+00 1667
6.638741e+00 -2.128298e+01 1.979962e+01 1669
7.463638e+00 -7.663245e+00 1.607472e+01 1687
-3.983695e+01 -9.631227e+00 1.054576e+01 1701
2.405955e+01 1.649536e+01 2.026894e+01 1709
-4.504965e+01 7.537504e+00 1.045956e+01 1724
4.849130e+01 -6.791588e+00 2.715588e+01 1727
2.765310e+01 1.128606e+01 1.877319e+01 1735
3.416551e+00 7.328293e+00 1.003730e+01 1743
1.933890e+01 4.344626e+00 1.893605e+01 1744
3.230448e+01 7.926461e+00 4.024465e+00 1752
4.575143e+01 1.265723e+01 1.442426e+01 1754
-4.115191e+01 2.232420e+01 2.028544e+01 1756
1.082541e+01 9.242544e+00 2.162345e+01 1757
-4.054420e+01 1.757592e+01 5.588054e-02 1761
2.391089e+01 -2.542031e+00 6.380562e-01 1763
2.106609e+01 -2.263967e+01 2.909361e+01 1772
-4.598653e+01 -3.924585e-01 1.999797e+01 1773
-7.018756e+00 -1.937493e+01 1.690368e+01 1777
3.610416e+01 -1.217016e+01 1.158893e+00 1779
4.643552e+01 -1.137158e+01 2.603832e+01 1782
1.764506e+01 1.433012e+01 1.086749e+01 1784
-3.621054e+01 -9.297748e+00 1.876363e+01 1794
-3.368746e+01 -2.209960e+01 2.050581e+01 1810
-4.543971e+01 8.019974e+00 8.478694e+00 1811
1.266320e+01 -2.458836e+01 1.610189e+01 1833
3.885711e+01 -6.447390e+00 2.652175e+01 1862
-2.707096e+01 3.993799e+00 1.588665e+01 1874
1.107947e+01 1.415562e+01 1.723456e+00 1876
3.378084e+01 -2.419797e+01 1.402695e+01 1877
2.673701e+01 2.081264e+01 1.750682e+01 1888
4.624212e+01 1.748962e+01 2.278035e+00 1895
-1.655692e+01 5.755263e-01 8.603072e+00 1906
4.789357e+01 -1.241609e+01 2.443550e+01 1908
2.673589e+01 -1.377605e+00 6.394090e+00 1912
-3.207748e+01 1.713629e+01 1.806012e+01 1920
1.232154e+01 1.840772e+01 1.783568e+01 1931
-4.617174e+01 2.386005e+01 3.854800e+00 1933
4.580513e+01 9.182974e+00 2.585519e+01 1959
-1.829484e-02 5.342215e+00 2.008746e+01 1968
-2.031549e+01 3.171888e+00 1.445410e+01 1972
-2.725169e+01 2.309782e+01 1.549241e+00 1973
4.440942e+01 2.074335e+00 1.448919e+01 1984
4.431284e+00 -1.009903e+01 1.771560e+01 1987
4.791773e+01 -2.408419e+01 9.604714e+00 1988
2.029898e+01 5.338649e+00 2.567121e+01 1990
4.713013e+01 1.387513e+01 2.261029e+01 1996
1.720900e+01 1.331619e+01 7.484071e+00 1997
-2.563307e+01 -5.442165e+00 2.297383e+01 2002
1.197983e+01 2.290588e+00 2.717226e+01 2009
3.502314e+01 -3.117325e+00 2.716139e+01 2042
1.802312e+01 1.280596e+01 1.354024e+01 2044
-8.583710e+00 -1.680327e+01 2.660195e+01 2054
7.471990e+00 8.387327e+00 8.696544e+00 2057
1.709587e+01 2.313708e+01 2.013322e+01 2062
-1.571516e+01 9.141652e+00 1.942297e+01 2063
-1.816929e-01 1.019915e+01 8.563997e+00 2091
-4.867895e+01 5.277679e+00 8.556334e+00 2092
-2.695473e+01 -1.328907e+01 1.732812e+01 2093
2.913053e+01 7.639468e+00 2.529748e+00 2094
-3.643226e+01 1.954034e+01 2.808837e+01 2109
-1.135423e+01 -6.503638e+00 6.137976e+00 2118
-3.018106e+01 2.461414e+01 5.420833e+00 2126
4.458799e+01 9.749218e+00 4.194252e+00 2128
1.313815e+01 -1.520933e+01 1.812717e+01 2129
-2.730862e+00 2.041718e+01 2.436094e+01 2137
1.059176e+01 3.293514e+00 5.586871e+00 2142
4.272946e+01 1.006146e+01 1.456288e+01 2145
2.101246e+01 2.422120e+01 2.530530e+01 2148
-1.082194e+01 -1.563781e+01 1.240080e+01 2153
3.394104e+01 1.502147e+01 1.406781e+01 2154
-1.692414e+01 1.894138e+01 1.882715e+01 2159
1.011545e+01 -9.652131e-01 1.286657e+01 2166
-4.359686e+01 7.426039e+00 8.316932e+00 2191
9.119855e+00 2.352670e+01 1.969961e+00 2200
-8.832215e+00 -8.925833e+00 1.112264e+01 2210
-3.914696e+01 7.733813e+00 2.371017e+01 2217
1.369701e+01 -5.169569e+00 2.447367e+01 2227
4.972038e+01 5.319028e+00 2.732652e+01 2228
6.426119e+00 -1.282125e+01 2.701556e+01 2233
3.311588e+01 2.595820e+00 4.207306e+00 2234
3.787078e+01 -1.911552e+01 2.460606e+01 2238
-3.217793e+01 9.912067e+00 2.355536e+01 2240
-3.788870e+01 -1.156097e+01 2.188420e+01 2244
-9.202623e+00 1.799164e+01 1.018555e+01 2252
-4.339274e+01 -1.217713e+01 3.608641e+00 2253
-4.473540e+01 8.908620e+00 9.284419e+00 2269
3.485167e+01 -4.665552e-01 6.217967e+00 2270
1.998356e+01 1.972893e+01 2.614717e+01 2287
9.065608e+00 8.275410e+00 1.515797e+01 2292
-3.407590e+01 1.375332e+01 2.236647e+00 2297
-1.968342e+01 -7.172841e+00 2.889162e+01 2307
2.658941e+01 1.052297e+01 8.709137e+00 2314
3.457020e+01 9.427352e+00 1.796131e+01 2334
4.966905e+01 -1.007995e+01 1.821902e+01 2347
1.184639e+01 7.497603e+00 2.854622e+01 2357
-1.189381e+01 2.371745e+01 2.675331e+01 2361
-2.047228e+01 9.761159e+00 2.533531e+01 2372
-2.246665e+01 -1.473886e+01 1.082219e+00 2386
-4.901236e+01 2.015323e+01 1.536391e+01 2391
4.174697e+00 2.265303e+01 2.405040e+01 2399
3.662475e+01 -9.222148e+00 2.917103e+00 2408
7.444373e+00 2.307373e+01 1.268598e+00 2425
4.804466e+01 -1.991994e+01 1.876458e+01 2426
2.745183e+01 -3.525943e+00 2.985743e+01 2428
-3.256375e+01 -8.731295e+00 2.231719e+01 2442
2.325930e+01 1.895782e+01 2.390284e+01 2451
-1.175159e+01 -1.642567e+01 2.265123e+01 2452
-1.618306e+01 -1.737275e+01 2.003635e+01 2454
4.416864e+01 -1.659618e+01 2.768957e+01 2494
-2.590701e+01 -6.141304e+00 1.823285e+01 2520
4.167649e+01 -2.357816e+01 1.566982e+01 2526
-2.838538e+01 1.389387e+00 1.527366e+00 2528
2.332763e+01 -1.863356e+01 2.546754e+01 2542
-3.002144e+01 9.524289e+00 2.154839e+01 2544
-1.583883e+01 1.189637e+01 1.777190e+01 2556
-1.359276e+01 -1.850090e+00 2.689155e+01 2566
-3.358886e+00 -1.206620e+01 4.931864e+00 2571
-8.561562e+00 9.847057e+00 1.488038e+01 2586
2.329340e+01 -8.410978e+00 2.301792e+01 2587
-3.625117e+01 2.233394e+01 2.949246e+01 2594
4.289378e+01 -3.189916e+00 1.463238e+01 2595
-2.201924e+00 1.513001e+01 7.606402e+00 2597
8.987940e+00 1.796789e+01 1.189161e+01 2598
-1.037788e+01 -2.263470e+01 2.242499e+00 2607
-1.742860e+01 -2.216294e+01 2.581690e+01 2633
2.765828e+01 2.228643e+01 2.683135e+01 2637
2.226612e+01 2.260640e+01 1.200611e+01 2640
1.776188e+01 -1.296407e+01 1.077511e+01 2644
-1.319626e+01 -9.365070e+00 4.596196e+00 2646
-4.670906e+01 -1.963257e+01 9.525036e+00 2649
-8.286509e+00 -1.699609e+01 2.702632e+01 2651
-4.432735e+01 -1.397321e+01 1.437436e+01 2653
-4.085090e+01 5.055522e+00 2.080128e+01 2670
-2.773759e+00 1.130283e+01 3.526172e+00 2704
-1.770012e+01 -1.982722e+01 1.630814e+01 2710
4.354373e+01 -4.715434e+00 2.699403e+01 2713
2.379851e+01 -5.034441e-01 9.036805e-01 2717
3.396668e+01 1.651757e+01 2.175019e+01 2731
4.344955e+01 -1.357841e+01 2.736755e+01 2734
2.839640e+01 -1.651158e+01 1.646329e-02 2739
-2.537150e+01 7.829311e+00 1.484462e+01 2752
-4.159927e+01 5.885081e+00 1.600292e+01 2760
-1.730477e+01 -2.270710e+01 2.881358e+01 2765
4.370521e+01 1.123443e+01 1.721989e+00 2769
4.151161e+01 8.357050e+00 2.467888e+01 2771
-2.315296e+01 -2.124311e+01 2.769286e+01 2772
2.380680e+01 -1.898482e+01 3.588846e+00 2782
4.383525e+00 -1.029139e+01 2.899818e+01 2787
-2.321043e+01 4.833108e+00 1.605387e+00 2795
1.857272e+01 -9.608771e+00 2.464170e+01 2800
-6.499941e-01 -2.270845e+01 8.194733e+00 2814
1.259472e+01 1.670687e+01 2.796394e+01 2816
-3.744674e+01 2.238885e+01 4.206345e+00 2836
-3.381009e+01 -1.449559e+00 9.400437e+00 2848
-4.952012e+01 4.412378e+00 2.668087e+01 2860
-4.047932e+01 1.857130e+00 2.266948e+01 2866
-1.088825e+01 1.003416e+01 5.388607e+00 2868
-4.565364e+01 -4.957594e+00 1.335653e+01 2874
-1.831394e+01 -2.343836e+01 2.751479e+00 2877
1.792964e+01 1.052712e+00 4.512035e+00 2879
4.486918e+01 2.150317e+01 2.272676e+01 2883
2.872344e+00 1.583810e+01 6.732960e+00 2906
-1.254413e+01 1.054653e+01 2.492896e+01 2907
3.431065e+01 1.826574e+01 1.958135e+00 2923
-2.858916e+01 -2.028184e+01 2.312446e+01 2926
-2.680774e+01 -7.814633e-01 1.412437e+01 2940
-2.937330e+01 1.885796e+01 1.871948e+01 2943
4.019688e+01 -1.380697e+01 1.944432e+01 2952
2.523076e+01 -5.214075e+00 1.993453e+00 2956
4.328193e+00 -2.123679e+01 1.097645e+01 2970
-4.957558e+01 -1.897462e+00 3.765709e+00 2971
2.527557e+01 -1.171719e+01 2.832406e+01 2982
1.338305e+01 1.110858e+01 1.619667e+01 2990
-3.305845e+01 1.588670e+01 1.638442e+01 2995
-2.146986e+01 5.379545e+00 1.077273e+01 2998
-1.633608e+01 1.742948e+00 9.963578e-01 3008
5.370464e+00 5.571334e+00 2.902862e+01 3025
-4.009375e+01 5.990212e+00 2.528394e+01 3028
3.185108e+01 -2.471459e+01 6.253976e-01 3044
1.616716e+01 1.853823e+01 2.283611e+01 3059
-4.648500e+01 -1.888036e+01 2.172022e+01 3067
2.411838e+00 -9.687610e+00 2.141479e+01 3081
1.938338e+01 5.672123e-01 1.933396e+01 3083
-2.441129e+01 -1.074795e+01 1.151063e+01 3089
4.927139e+01 -1.432905e+01 1.964269e+01 3094
-3.711669e+01 -1.822602e+01 1.572480e+01 3103
7.436875e+00 1.091818e+01 9.826309e+00 3104
-3.080055e+01 1.623218e+01 2.976523e+01 3120
1.636513e+01 1.700544e+01 7.610551e+00 3123
-1.746877e+01 -1.152288e+01 2.950214e+01 3134
-4.992356e+01 -1.017196e+01 2.096455e+01 3140
2.649111e+01 -2.717565e+00 6.368701e-01 3156
4.476122e+01 -8.447615e+00 3.238654e+00 3157
-4.313289e+01 -1.621394e+01 2.378204e+00 3198
1.007125e+01 -6.879244e+00 2.587345e+01 3200
4.613310e+01 2.433032e+01 2.799177e+01 3209
4.059666e+01 2.261933e+01 2.711556e+01 3218
-2.455788e+01 1.615525e+01 1.674683e+00 3223
-1.395585e+01 1.512880e+00 1.320648e+01 3244
2.937526e+01 5.362362e+00 1.977064e+01 3248
2.414285e+01 -1.377279e+01 2.443525e+01 3254
4.894573e+01 4.288212e+00 1.202828e+01 3257
-4.796503e+01 -1.926949e+01 2.821939e+00 3258
4.463456e+01 -3.761757e+00 1.090592e+01 3259
2.866544e+00 2.021666e+01 2.648967e+01 3262
4.711654e+01 -4.592295e+00 1.882730e+01 3263
3.036539e+01 -1.687847e+01 3.817226e+00 3273
-5.455396e+00 -2.064194e+01 2.293604e+01 3285
4.062365e+01 -1.622062e+01 3.403207e+00 3308
2.551345e+01 1.565048e+01 5.539877e+00 3317
-4.055799e+01 -7.357423e+00 6.363172e-01 3321
-3.053932e+01 2.469915e+01 2.151425e+01 3322
-4.010971e+01 -2.139495e+01 2.989816e+01 3323
2.253566e+01 9.477655e+00 3.137651e+00 3333
3.316635e+01 1.338494e+01 1.431445e+01 3347
2.012818e+01 -1.001777e+01 3.412527e+00 3348
-2.141537e+01 -2.060017e+01 3.539851e+00 3353
-1.855636e+01 -2.023418e+01 2.805493e+01 3357
3.613918e+01 -7.100339e+00 1.009937e+01 3366
-2.343778e+01 1.193648e+01 1.028518e+01 3375
4.092187e+01 -6.201316e+00 1.558082e+00 3398
-3.951845e+01 1.679711e+01 5.765360e+00 3402
-4.392505e+01 1.121220e+01 2.754990e+01 3415
-2.364170e+01 1.690104e+01 2.177244e+00 3431
-1.719941e+00 -8.098041e+00 2.088586e+01 3433
2.755954e+01 -1.521915e+01 2.947045e+01 3445
-3.797909e+01 -2.331634e+01 2.020279e+01 3447
4.849658e+01 -2.463177e+01 2.761609e+01 3450
3.145696e+01 1.766699e+01 2.254881e+01 3456
-2.676653e+01 -9.020985e+00 2.217017e+01 3460
-4.475899e+01 2.034756e+01 2.332554e+01 3461
4.465073e+01 -2.365653e+01 1.923103e+01 3463
-3.529867e-01 8.137296e+00 2.965919e+01 3464
-3.684648e+01 -1.504061e+00 1.441135e+01 3484
1.841488e+01 -2.396980e+01 3.673337e+00 3487
2.370475e+01 -6.927554e+00 2.268354e+01 3488
2.307094e+01 1.868431e+00 7.754356e+00 3491
3.379186e+01 -3.523238e+00 1.774639e+01 3492
-1.190335e+01 2.670545e+00 2.711323e+01 3498
6.021663e+00 -1.217799e+01 1.239794e+01 3503
-3.773427e+01 -2.482970e+01 2.096188e+01 3526
1.117716e+00 1.445252e+01 2.060050e+01 3527
-4.240775e+01 -4.435228e+00 8.711948e+00 3532
3.123831e+01 -1.138929e-01 7.217705e+00 3535
-3.333549e+01 -1.730234e+01 1.925067e+01 3538
-2.520279e+01 -6.754375e+00 1.682817e+01 3562
4.799395e+01 -1.764178e+01 1.492126e+01 3578
2.350267e+01 8.706652e+00 1.001979e+01 3593
-3.068325e+01 -2.291698e+01 5.284069e+00 3604
-2.199664e+01 -1.644021e+01 1.479697e+01 3612
1.449005e+01 -1.148201e+01 2.431972e+01 3614
4.179395e+01 -6.298562e+00 1.418636e+01 3621
-4.782133e+01 -1.563034e+01 2.215792e+01 3626
-3.721199e+01 -1.726322e+00 9.829732e+00 3639
-3.146706e+01 1.080626e+01 2.232412e+00 3652
-8.235749e+00 3.673508e-01 1.110694e+01 3659
-2.166812e+01 -1.681870e+01 1.530908e+01 3663
1.797527e+01 2.145455e+01 1.956727e+01 3669
4.505757e+01 -1.882387e+00 1.807265e+00 3675
4.207077e+01 -5.270518e+00 1.699359e+00 3677
-2.790462e+00 -1.712853e+01 4.366085e+00 3679
-3.332435e+01 6.203558e+00 1.582108e+01 3682
-3.879258e+01 -1.291423e+01 1.936028e+01 3685
-3.285215e+01 7.843378e-01 2.185686e+00 3686
4.188501e+01 -1.261063e+01 8.147108e+00 3713
4.501831e+01 -2.875249e+00 2.589685e+01 3717
-2.076328e+01 1.125921e+01 2.183132e+01 3727
-2.358568e+01 -1.178963e+01 2.834291e+01 3729
-2.795338e+01 -2.419780e+01 9.616144e+00 3730
2.209393e+01 -5.329432e-01 2.045396e+01 3733
-7.846674e+00 1.062072e+00 7.448659e+00 3734
2.424754e+01 1.701002e+01 2.910726e+01 3736
2.807866e+01 6.191155e-01 7.702859e+00 3741
1.144226e+01 1.185679e+01 2.778656e+01 3747
-4.911585e+01 -1.456234e+01 2.899963e+01 3755
-7.653858e+00 -1.640981e+01 1.444675e+01 3758
-2.176164e+01 -9.069177e+00 2.697453e+01 3760
-4.727484e+01 2.917986e+00 2.916819e+01 3761
-5.092087e+00 -1.802948e+01 1.465869e+01 3762
-4.756054e+01 -5.726213e+00 2.507906e+01 3766
3.701782e+01 1.801567e+01 2.601384e+01 3771
-3.363182e+01 -4.523935e+00 2.268136e+01 3780
4.388633e+01 2.879128e+00 8.252664e+00 3788
-1.045140e+01 -1.337976e+01 1.918822e+00 3798
2.280927e+01 -1.751685e+01 2.753516e+01 3800
7.986061e+00 -1.513412e+01 1.455217e+01 3801
2.831701e+01 1.983823e+01 1.807922e+01 3804
-2.279128e+01 8.785719e+00 1.156943e+01 3820
3.775694e+01 -6.594880e+00 3.249886e+00 3836
8.327722e+00 -1.274351e+01 3.911398e+00 3844
-4.205218e+01 1.385410e+01 2.540092e+01 3849
-2.106668e+01 -4.642770e+00 1.839294e+01 3854
3.181450e+01 1.454814e+01 1.960066e+01 3856
3.787807e+01 1.948850e+01 1.793981e+00 3857
5.290322e+00 2.097601e+01 1.698872e+01 3858
3.286887e+01 1.456075e+01 1.500115e+01 3859
-1.707451e+01 -2.406956e+01 1.618910e+01 3865
4.633980e+01 1.875199e+01 1.794274e+01 3880
3.117869e+01 -6.362078e+00 8.628864e+00 3889
1.409595e+01 -2.014718e+01 1.647473e+00 3910
3.473764e+00 -2.151234e+01 2.186220e+01 3911
4.965256e+01 1.277794e+01 2.249352e+01 3919
4.277189e+01 -2.207572e+01 1.894996e+01 3929
4.518398e+01 -5.229251e+00 2.766812e+01 3930
-3.171376e+01 2.162633e+01 2.205793e+01 3935
3.424311e+01 -2.503799e+00 5.116922e+00 3953
1.498721e+01 6.034270e+00 2.449013e+01 3957
2.901057e+01 1.960914e+01 2.595107e+01 3963
3.439875e+00 7.947549e+00 1.409819e+01 3969
2.552965e+01 1.962971e+01 9.702293e-01 3973
-3.591841e+01 -1.243329e+01 2.138407e+01 3984
-1.649613e+01 -9.186878e+00 2.060383e+01 3989
-3.289680e+01 1.203509e-01 6.069000e+00 4011
3.661257e+01 1.841855e+01 1.182701e+01 4016
6.714932e+00 -1.114314e+00 1.919886e+01 4017
-1.645730e+01 -6.995554e+00 1.278977e+01 4020
-4.642127e+01 9.663643e+00 2.134031e+01 4029
3.607240e+01 -9.243693e+00 2.898142e+01 4034
-6.927878e+00 8.161681e+00 1.548062e+01 4036
-2.068266e+00 -7.832724e-01 4.811346e+00 4037
-1.457624e+01 -6.699683e+00 8.669332e+00 4039
-5.384587e+00 3.777786e+00 2.682614e+01 4046
-4.847740e+01 -9.007809e+00 1.322756e+01 4057
4.573447e+01 -1.787487e+01 2.935157e+01 4061
1.824063e+01 8.695801e+00 2.560748e+01 4066
-3.927459e+01 -8.347361e+00 8.349431e+00 4079
2.558161e+01 1.389448e+01 7.439787e+00 4080
-3.437304e+01 6.644660e+00 1.436108e+01 4088
-2.671874e+01 -2.198495e+01 1.016167e+01 4104
4.133305e+01 -1.602384e+01 2.237064e+01 4106
3.471761e+01 -2.478385e+01 6.899519e+00 4120
2.311247e+01 1.859897e+01 1.254385e+01 4144
-4.899873e+01 1.510184e+01 2.487615e+01 4150
-2.565564e+01 -3.684093e+00 1.591728e+01 4152
4.396167e+01 1.459097e+01 2.406576e+01 4161
-1.274313e+01 -2.474680e+01 1.498011e+01 4165
3.901270e+01 -5.089195e+00 5.594538e+00 4170
6.494349e+00 4.207881e+00 2.015599e+01 4172
-7.449107e+00 -3.067896e+00 1.572015e+01 4178
1.665731e+01 1.602154e+01 1.230491e+01 4183
-2.745321e+00 1.115955e+01 2.887837e+01 4184
2.297698e+01 -1.547233e+01 3.316745e+00 4194
-1.701321e+01 7.253361e+00 2.721316e+01 4201
1.724658e+01 -2.385031e+01 1.462689e+01 4209
-5.716755e+00 -2.353019e+01 3.998645e+00 4211
1.179876e+01 2.140396e+01 2.383191e+01 4239
1.802109e+01 1.658994e+01 3.889092e+00 4245
3.492196e+01 6.628200e+00 2.022115e+00 4248
2.152931e+01 -1.947226e+01 1.504084e+01 4252
-1.503512e+01 -2.872592e+00 2.532901e+01 4256
-1.145653e+01 1.484020e+01 6.750126e+00 4265
-1.329562e+00 2.139868e+01 2.201645e+01 4266
2.076352e+01 8.608246e+00 2.556320e+01 4268
4.004122e+01 -1.739895e+01 2.350622e+01 4302
4.796231e+01 1.543620e+01 1.726974e+01 4304
-3.994627e+01 5.134779e-01 2.179667e+01 4308
-3.033779e+01 2.493113e+00 3.178751e+00 4314
3.478345e+01 -7.946965e+00 2.467720e+01 4318
3.334311e+01 8.740286e+00 1.694643e+01 4325
-1.703774e+01 -1.512485e+01 2.581657e+01 4332
1.474275e+01 -1.223588e+01 8.646340e+00 4340
-1.163184e+01 4.106846e+00 2.231321e+01 4347
-2.954900e+01 -3.558870e-01 4.608442e-01 4351
7.768874e+00 -6.023777e+00 1.282876e+01 4352
-2.295953e+01 1.024822e+01 2.839037e+01 4353
1.525230e+01 1.685057e+01 2.944547e+00 4359
-4.405424e+01 1.464082e+01 1.146975e+01 4360
-2.331694e+01 9.245960e+00 3.817758e+00 4370
4.220669e+01 -8.894396e+00 4.619748e+00 4378
-2.749471e+01 1.979182e+01 1.067754e+01 4389
1.476231e+01 -2.127237e+01 6.618287e+00 4395
6.451870e+00 1.507823e+01 2.405854e+01 4396
-1.530401e+01 2.140238e+01 2.059849e+01 4402
1.684984e+00 -1.854719e+00 1.773124e+01 4404
4.047411e+01 -9.439676e+00 2.906061e+00 4408
4.589073e+01 -2.045810e+01 2.201863e+01 4409
1.179353e+01 9.956870e+00 7.061513e-01 4423
-4.485027e+00 -3.988445e+00 2.696258e+01 4432
-2.757424e+01 1.510585e+01 1.721065e+01 4434
-3.744999e+01 1.942330e+00 1.334158e+01 4435
1.741651e+01 1.128047e+01 1.431092e+01 4448
-2.777684e+01 1.232769e+01 2.883922e+01 4453
-4.444696e+01 9.150279e+00 2.413040e+01 4462
-1.654919e+01 1.960452e+01 2.672284e+01 4470
-1.752552e+01 2.354926e+01 4.189322e+00 4480
2.311698e+01 2.039422e+01 1.464398e+01 4481
3.110277e+01 2.499252e+00 2.368811e+01 4485
-1.263111e+01 1.272117e+01 1.476662e+01 4488
1.336753e+01 -8.665585e+00 8.900341e+00 4511
1.982731e+01 -3.774727e-01 1.998448e+01 4515
2.920269e+01 2.637012e+00 1.078948e+01 4524
-8.232841e+00 -2.135874e+01 1.079907e+01 4534
-7.382162e-01 1.006436e+01 2.405838e+01 4537
-1.764709e+01 1.300347e+01 5.084395e+00 4538
5.300481e+00 1.532901e+00 2.031291e+01 4541
-3.015182e+01 1.312071e+01 9.921740e+00 4544
-6.142388e+00 2.015547e+01 1.673346e+01 4578
1.518414e+01 1.185964e+01 1.951944e+01 4584
-4.108758e+01 6.005328e+00 1.573289e+01 4602
2.819226e+01 -1.132558e+01 8.872459e+00 4606
4.704204e+01 1.964839e+01 3.052312e+00 4614
4.352402e+01 -6.363566e-01 4.598805e+00 4618
6.154053e+00 -2.451923e+00 7.662435e+00 4620
-3.218546e+01 -5.216500e+00 8.661891e-02 4621
3.747746e+01 -1.292374e+01 7.705209e+00 4623
-7.529031e+00 -2.311657e+01 6.670511e+00 4624
3.626016e+01 3.164365e+00 1.494746e+01 4626
9.334234e+00 -3.211217e+00 1.858554e+01 4635
-3.723931e+01 1.700654e+01 2.732441e+01 4636
-4.270956e+01 1.160944e+00 2.272368e+01 4638
-4.460208e+01 -1.218756e+01 1.914796e+01 4640
4.676553e+01 1.385765e+01 2.791538e+00 4645
-4.594389e+01 -1.489165e+01 2.976156e+01 4646
9.502446e+00 -2.206121e+01 1.598238e+01 4654
1.802651e+01 -5.804712e+00 1.576198e+01 4659
-2.270687e+01 1.747777e+01 2.380540e+01 4660
3.962389e-01 -2.329260e+01 1.178217e+01 4663
-6.640442e+00 3.062521e+00 2.360095e+01 4665