Title = Snapshot #35
Variables=X Y Z PartID
Zone I= 6374, F=POINT
1.013055e+01 -1.138889e+01 2.080524e+01 2
3.005627e+01 -2.495907e+01 2.061661e+01 6
1.209586e+01 1.095780e+01 2.769264e+01 8
9.793552e+00 2.145506e+01 2.197132e+01 12
-5.153028e+00 6.108744e+00 9.953753e+00 14
-3.241365e+01 1.908041e+01 8.832499e-01 17
-2.241541e+01 1.237749e+01 8.356387e+00 18
-3.392733e+01 -2.278009e+01 2.107541e+01 21
-1.709996e+01 -1.468111e+01 2.509674e+01 23
1.963381e+01 -1.159577e+01 1.521472e+01 31
-1.534839e+01 -5.838683e-01 5.333342e+00 41
7.439922e+00 7.306000e+00 1.395960e+01 42
-2.060293e+01 5.185198e+00 2.078547e+01 45
-4.253045e+01 -2.154623e+01 2.646869e+01 74
-2.848474e+01 -1.210821e+01 8.348876e+00 80
3.921639e+00 2.318879e+01 1.332024e+01 82
-4.683584e+01 -1.499040e+01 2.448023e+01 83
-4.885830e+01 1.077446e+01 2.587092e+01 90
2.609668e+01 1.342824e+01 7.428022e+00 91
3.083193e+01 -1.155387e+01 2.222617e+01 95
3.442085e+01 1.275664e+01 2.452694e+01 98
4.595830e+01 1.179036e+01 1.691571e+01 135
7.729786e+00 -8.030878e+00 1.675496e+01 137
3.455984e+01 8.713748e+00 1.301994e+01 150
-1.761761e+01 -5.634910e+00 8.257494e+00 158
-2.287988e+01 -2.497338e+01 1.620627e+01 166
3.028706e+01 1.257872e+00 1.514114e+01 171
2.454651e+01 1.344659e+01 5.612344e+00 181
-4.970150e+01 -5.507818e+00 2.072067e+01 199
-8.394309e+00 5.575308e+00 1.078038e+01 214
-1.834553e+01 2.042830e+01 5.591318e+00 217
-3.873935e+01 -1.497921e+01 2.562835e+01 219
2.283693e+00 2.759704e+00 1.097420e+01 233
-4.408722e+01 1.481156e+01 8.415527e+00 234
2.372332e+01 -1.460770e+01 5.182546e+00 257
-4.186222e+01 -1.793254e+01 1.992587e+01 279
1.018631e+01 2.390458e+00 2.047814e+01 295
-4.247382e+01 -1.808492e+01 4.168415e+00 309
3.830768e+01 -1.920359e+01 6.421077e+00 317
1.029550e+01 9.877450e-01 2.649147e+01 319
1.076285e+01 -1.797205e+01 2.533707e+01 321
-4.058885e+01 1.529513e+01 1.936147e+01 325
-4.743566e+01 -1.233441e+01 1.758597e+00 329
3.732149e+01 2.022652e+01 2.974597e+01 337
-3.086079e+01 -1.114645e+01 8.189279e+00 340
-4.977562e+01 2.355242e+01 1.738385e+01 348
4.404735e+01 2.372255e+01 2.884942e+01 352
4.705907e+01 1.400341e+01 1.777372e+01 363
-1.099452e+01 2.330929e+01 3.130436e+00 373
4.538883e+01 7.542744e-01 2.922666e+01 375
3.423478e+01 2.496552e+01 2.031117e+01 379
-2.526282e+01 1.192230e+01 4.483352e+00 396
1.730709e+01 1.043935e+01 1.129784e+01 412
2.289846e+01 -1.755566e+01 2.987261e+01 418
-1.124662e+01 -1.921446e+01 2.342976e+01 425
5.561639e+00 1.439962e+01 5.525157e-01 426
-2.308468e+00 1.418898e-01 9.121894e+00 427
2.157397e+01 1.040676e+01 2.358430e+01 441
2.074038e+01 1.511271e+01 2.737379e+01 443
1.206418e+01 2.080948e+01 2.654888e+01 454
2.611544e+01 9.980284e+00 2.525714e+01 457
-6.557315e-01 2.315897e+01 1.933063e+01 467
3.596212e+01 -1.489414e+01 7.888618e+00 477
-4.805539e+01 8.502672e+00 6.551657e+00 483
3.848548e+01 3.929608e+00 4.652781e+00 504
-7.765841e+00 5.633672e+00 1.525138e+01 505
1.564469e+01 1.402919e+01 2.948044e+01 506
5.164286e+00 -1.342953e+01 1.097823e+01 510
-5.557226e+00 1.067713e+01 8.809413e+00 521
-1.581140e+01 -2.140050e+01 9.345919e+00 524
-4.880404e+01 -1.837507e+01 2.660006e+01 525
-3.378813e+01 5.858937e+00 2.647297e+01 536
1.714129e+01 1.873333e+01 2.439168e+00 537
-8.632843e+00 -1.057888e+01 2.756531e+01 555
4.985640e+01 1.439157e+01 2.774821e+01 558
-9.883194e+00 5.495169e+00 2.901696e+01 559
3.001408e+01 1.248154e+01 2.896700e+01 564
4.043661e+01 1.852699e+01 1.660956e+01 578
-5.535976e+00 2.039342e+01 4.421934e-01 581
-4.580121e+01 1.615214e+00 1.635429e+01 582
-2.733025e+01 1.395961e+01 1.388232e+01 588
4.610126e+01 2.135579e+01 1.579062e+01 591
-3.047714e-01 1.551186e+01 2.765030e+01 594
-4.768639e+01 6.986953e+00 3.866677e+00 599
-7.039151e+00 -2.339590e+01 8.456003e-01 611
-4.828899e+01 2.090107e+01 1.238193e+01 618
-4.002769e+01 -7.763989e+00 1.437463e+01 626
4.101959e+01 1.783143e+01 2.789259e+00 629
-6.385464e+00 2.351445e+01 2.677522e+01 634
2.287314e+00 -1.377037e+01 6.489795e+00 636
-1.718324e+01 -7.949079e+00 2.150573e+01 640
2.664837e+01 1.573736e+01 1.901282e+00 650
4.932238e+01 -2.403903e+01 1.011983e+01 657
-1.093245e+01 -2.701056e+00 2.068137e+01 661
-4.089441e+01 -7.659152e+00 9.398717e+00 667
1.317669e+01 -1.200857e+01 2.285063e+01 674
2.995110e+01 -1.237768e+01 2.825339e+00 675
6.822401e+00 -1.513986e+01 1.457823e+01 686
4.217750e+01 5.516975e-01 1.991354e+01 687
2.025490e+01 -5.274077e+00 2.656154e+01 688
-2.197741e+01 -1.253309e+01 2.093637e+01 691
-2.653836e+01 -6.321217e+00 8.621953e+00 697
-2.728760e+01 1.626959e+01 1.335561e+01 701
-2.024569e+01 -9.506500e+00 2.673779e+01 702
-1.260821e+01 1.687239e+01 2.470209e+01 704
4.628357e+01 2.163435e+01 1.088338e+01 723
3.366910e+01 1.570549e+01 1.937184e+01 724
1.704060e+01 1.267519e+01 1.119975e+01 729
-4.377003e+00 -8.407352e+00 2.482276e+01 731
-4.628637e+01 -2.067630e+01 6.589083e+00 739
-2.337867e+01 1.503202e+01 1.622597e+01 743
3.629766e+01 1.087969e+01 2.662176e+01 747
-3.737032e+00 -7.860157e+00 4.177311e+00 749
3.250875e+01 -1.223375e+01 1.068038e+01 752
2.235385e+01 1.066056e+01 2.834808e+01 754
-2.106868e+01 1.066951e+00 1.875340e+01 763
3.601466e+00 -1.156696e+01 3.600803e+00 776
3.671161e+01 -7.709725e+00 1.255075e+01 783
-1.647248e+01 6.447439e+00 7.772144e+00 791
-2.849712e+00 -2.480041e+01 1.209347e+01 792
-2.262389e+01 1.827650e+01 2.323915e+01 793
3.693261e+00 1.618854e+01 2.652956e+01 797
1.056140e+01 -4.074593e+00 2.743805e+01 814
1.702675e+01 -1.015305e+01 2.684146e+01 823
3.379170e+01 1.159525e+00 1.747643e+01 841
-4.273180e+01 -1.827040e+01 4.607932e+00 848
2.786612e+01 4.628264e+00 2.618909e+01 852
4.813292e+00 -6.204139e+00 5.022181e+00 853
1.418008e+01 7.236990e+00 1.132371e+01 860
1.834237e+01 -5.512815e+00 3.373041e+00 862
1.695742e+01 1.337842e+01 1.034241e-01 865
1.255475e+00 1.262129e+01 1.580048e+01 871
-9.536513e+00 -2.014435e+01 1.872215e+01 879
9.178340e+00 -1.677367e+01 2.289392e+01 890
-3.395196e+01 2.139863e+01 4.345759e+00 891
-2.940699e+01 1.935563e+01 2.899425e+01 892
-2.786744e+01 1.120781e+01 1.976516e+01 893
7.957950e-01 1.113397e+00 1.833620e+01 899
1.986469e+01 -2.377251e+01 1.535980e+01 901
4.121468e+01 5.636082e+00 1.243774e+00 903
-2.298255e+01 1.546277e+01 2.988505e+01 904
-2.545747e+01 8.994868e+00 1.685523e+01 918
-3.503932e+01 -6.002855e+00 2.396948e+01 928
-8.001505e+00 2.486901e+01 2.559341e+01 939
-3.023266e+01 -1.093657e+01 1.326501e+01 961
-4.805333e+00 -7.080840e+00 2.994602e+01 971
-1.568326e+01 -5.939960e+00 2.871317e+01 973
1.705988e+01 6.326809e-01 2.214311e+01 980
-3.333425e+00 -1.390466e+01 2.078052e+00 984
2.781655e+01 1.722483e+01 2.719704e+01 994
-3.197950e+01 -9.138577e+00 6.641868e+00 1000
-4.991177e+01 -3.296204e+00 9.023059e+00 1006
-2.888607e+01 9.079521e+00 2.333460e+01 1010
-1.146631e+01 1.302735e+01 2.763824e+01 1013
-4.861628e+01 1.433434e+01 2.083840e+01 1018
-3.604629e+01 6.289014e+00 2.745202e+01 1019
-3.373092e-01 -1.484437e+01 1.697094e+00 1024
-2.034588e+01 -9.424888e+00 2.402296e+01 1033
1.232922e+01 2.189170e+01 9.316679e+00 1054
3.256307e+00 -7.820872e+00 2.796309e+01 1056
-3.431174e+01 2.367416e+01 4.162763e+00 1058
-4.580602e+01 3.421338e+00 4.959422e+00 1073
2.389138e+01 2.224288e+01 5.223518e+00 1091
2.612857e+01 1.935678e+01 5.736899e+00 1096
-7.050342e+00 -1.209324e+01 2.501253e+01 1100
4.446506e+00 1.048317e+01 9.859948e+00 1119
2.224057e+01 1.738522e+01 7.280253e+00 1133
-2.575816e+01 1.988302e+01 1.526875e+01 1137
1.922357e+01 1.207232e+01 3.566502e+00 1140
-3.042807e+01 -1.497945e+01 1.561810e+01 1147
1.857987e+01 1.605146e+01 1.410821e+01 1168
-4.461763e+01 -1.983767e+00 1.042639e+01 1174
-1.191642e+01 -2.355732e+01 5.910304e+00 1176
2.785473e+01 1.024363e+01 7.044896e+00 1183
-3.877457e+01 -2.127078e+01 9.480288e+00 1193
-2.517028e+01 -2.149136e+01 1.210199e+01 1196
-4.719569e+01 9.288781e-01 1.883542e+01 1198
4.796390e+01 4.619226e+00 2.279522e+01 1210
-4.502217e+01 1.531321e+01 2.229989e+01 1222
5.590302e+00 1.787005e+01 3.930913e+00 1226
-1.264338e+01 1.385802e+01 1.933615e+01 1230
-4.286003e+01 -1.668545e+01 1.452983e+00 1232
2.801865e+01 1.426593e+00 6.269961e+00 1238
4.710416e+01 -2.989087e+00 1.183674e+01 1242
-2.648888e+00 -1.102230e+01 2.388870e+00 1250
4.995407e+01 -1.392658e+01 1.307183e+01 1252
-4.863621e+01 -1.831775e+01 4.308864e+00 1257
-2.431200e-01 1.590141e+01 8.220688e-01 1260
3.766808e+01 5.374677e+00 2.451954e+01 1273
-2.670371e+01 -5.690513e+00 1.177954e+00 1278
2.719710e+01 -9.412839e+00 1.837716e+00 1284
-1.336281e+01 5.040809e+00 2.450443e+01 1286
3.249072e+01 9.620258e+00 1.503435e+00 1292
-1.006304e+01 7.743929e+00 2.994070e+01 1296
-4.055593e-01 -1.977773e-01 2.857935e+01 1312
-7.161675e-01 -5.341781e+00 2.110539e+01 1323
-1.635722e+01 -2.268327e+01 2.386155e+01 1326
-1.926026e+01 -2.127276e+01 2.340301e+01 1332
3.189361e+01 -2.110496e+01 2.429135e+01 1333
-4.437945e+01 8.353339e-01 1.808234e+01 1334
2.182203e+01 -1.852234e+01 1.536411e+01 1337
-1.751685e+01 3.522139e+00 3.486501e+00 1340
-4.729459e+00 -1.527836e+01 2.856884e+01 1342
2.531648e+00 4.801750e+00 2.069576e+01 1346
2.653973e+01 1.743241e+01 1.599300e+01 1350
1.242183e+01 -5.760757e+00 2.752210e+01 1351
3.831772e+01 8.367634e-01 1.843439e+01 1352
-3.318506e+00 -4.657246e+00 1.308092e+01 1356
1.004165e+01 -6.139986e+00 1.493703e+01 1362
-4.247384e+01 5.461443e+00 1.548849e+01 1374
3.502920e+01 7.893570e+00 1.229678e+01 1375
3.446374e+01 1.041613e+01 1.416478e+01 1382
1.933016e+01 -2.309761e+00 2.009981e+01 1385
8.206352e-01 -2.395633e+01 1.568272e+01 1395
1.654487e+01 1.238296e+01 1.359828e+01 1415
1.385606e+01 -1.844584e+01 1.928839e+01 1420
-5.815492e+00 1.982781e+01 6.437347e+00 1421
2.108256e+01 -1.803721e+01 1.962587e+01 1423
2.087523e+01 -1.188629e+01 8.836377e+00 1442
-4.804298e+01 2.325047e+01 1.687686e+01 1445
1.012980e+01 3.181942e-01 1.804759e+01 1451
1.076003e+01 8.395215e+00 1.387093e+01 1455
3.675823e+01 -9.138061e+00 1.567345e+00 1460
1.224306e+01 -1.657980e+01 1.884387e+01 1470
-1.913012e+01 -4.876199e+00 5.116248e+00 1471
-2.575331e+01 -9.025986e+00 2.264525e+01 1472
3.832936e+01 -8.953755e+00 1.419997e+01 1474
1.604306e+00 -1.432182e+01 1.504269e+01 1478
-4.118600e+01 1.761582e+01 2.283232e+01 1479
-1.557725e+01 -1.081312e+01 1.179214e+01 1493
2.892233e+01 -1.536436e+01 1.232195e+01 1496
-3.561174e+01 1.311343e+01 1.621930e+01 1502
1.968472e+01 1.820865e+01 1.702709e+01 1514
1.181268e+00 -1.216569e+01 2.844648e+01 1516
3.714359e+01 -2.909432e+00 7.321256e-02 1517
-1.456112e+00 2.139957e+01 2.104034e+01 1518
-1.120672e+01 -1.890959e+01 7.592089e+00 1523
4.813951e+01 -1.795641e+01 2.854960e+01 1531
-4.813668e+01 -9.775650e+00 1.381302e+01 1543
-3.325626e+00 1.760719e+01 3.005415e+00 1546
3.314973e+01 -3.421879e+00 8.018695e+00 1551
-4.523632e+01 1.129272e+01 2.475843e+01 1562
9.730001e+00 1.780871e+01 2.864410e+01 1576
-3.077111e+01 1.147689e+01 2.237458e+01 1580
-3.797541e+01 1.588436e+01 2.123249e+01 1582
-2.619679e+00 -1.222434e+01 2.022781e+01 1589
-2.555611e+01 2.166296e+01 2.970203e+01 1591
-1.580812e+01 2.370063e+01 2.759286e+01 1595
-9.757071e-01 1.004912e+01 2.506277e+01 1598
1.635067e+01 2.184498e+01 1.631690e+01 1606
5.749287e+00 -9.293805e+00 2.287482e+01 1615
2.174133e+01 -1.168608e+01 4.367286e+00 1617
3.374774e+01 -6.017920e+00 1.115329e+01 1620
-5.192259e+00 1.150819e+01 6.226589e+00 1623
-3.026279e+01 -2.465807e+01 1.303845e+01 1634
2.514786e+01 2.256807e+01 2.356491e+01 1642
-2.188335e+00 -3.597949e+00 1.619268e+01 1655
-3.850608e+01 1.636159e+01 3.866897e+00 1667
8.203385e+00 -2.159003e+01 2.012942e+01 1669
8.952015e+00 -7.382222e+00 1.641147e+01 1687
-3.881748e+01 -9.929042e+00 1.160662e+01 1701
2.590183e+01 1.617353e+01 1.965738e+01 1709
-4.311011e+01 7.747023e+00 1.152224e+01 1724
2.994507e+01 1.165193e+01 1.804629e+01 1735
5.005503e+00 7.413387e+00 1.053407e+01 1743
2.098522e+01 4.588294e+00 1.864734e+01 1744
3.352799e+01 8.213437e+00 4.077877e+00 1752
4.771522e+01 1.215364e+01 1.469747e+01 1754
-3.987340e+01 2.280532e+01 2.135650e+01 1756
1.326441e+01 9.836308e+00 2.197732e+01 1757
-4.039999e+01 1.752827e+01 3.937889e-02 1761
2.500200e+01 -1.958010e+00 7.046974e-01 1763
2.420988e+01 -2.218300e+01 2.871668e+01 1772
-4.495985e+01 1.015566e+00 1.949080e+01 1773
-5.343831e+00 -1.986397e+01 1.740903e+01 1777
3.741447e+01 -1.201562e+01 1.222712e+00 1779
4.886622e+01 -1.131905e+01 2.599325e+01 1782
1.891260e+01 1.434408e+01 1.098974e+01 1784
-3.469498e+01 -9.308094e+00 2.018134e+01 1794
-3.093096e+01 -2.247175e+01 2.194558e+01 1810
-4.315988e+01 8.468023e+00 1.002165e+01 1811
4.121655e+01 -6.402810e+00 2.713825e+01 1862
-2.493310e+01 4.244743e+00 1.521757e+01 1874
1.319814e+01 1.392854e+01 1.528250e+00 1876
3.567854e+01 -2.395710e+01 1.418125e+01 1877
2.824434e+01 2.152345e+01 1.778650e+01 1888
4.725807e+01 1.814828e+01 2.363025e+00 1895
-1.497339e+01 3.738381e-01 7.839708e+00 1906
2.834414e+01 -1.395306e+00 6.776093e+00 1912
-3.038285e+01 1.823814e+01 1.978804e+01 1920
1.419559e+01 1.836499e+01 1.818138e+01 1931
-4.313112e+01 2.383161e+01 3.907023e+00 1933
4.855697e+01 8.748820e+00 2.581333e+01 1959
2.311415e+00 4.930792e+00 2.085260e+01 1968
-1.914628e+01 3.393206e+00 1.313910e+01 1972
-2.610873e+01 2.328379e+01 1.039766e+00 1973
4.589909e+01 1.922935e+00 1.447192e+01 1984
5.833764e+00 -9.869288e+00 1.850454e+01 1987
4.912265e+01 -2.432665e+01 9.987334e+00 1988
2.185787e+01 5.282453e+00 2.550412e+01 1990
4.956864e+01 1.409921e+01 2.329953e+01 1996
1.828337e+01 1.322982e+01 7.537891e+00 1997
-2.298896e+01 -5.476016e+00 2.304844e+01 2002
1.375144e+01 1.793715e+00 2.824287e+01 2009
3.750192e+01 -2.615865e+00 2.682057e+01 2042
1.954750e+01 1.307861e+01 1.341221e+01 2044
-7.025748e+00 -1.679703e+01 2.668049e+01 2054
8.660928e+00 8.145750e+00 8.675830e+00 2057
1.853892e+01 2.205067e+01 1.992441e+01 2062
-1.379217e+01 9.664057e+00 1.838245e+01 2063
1.621571e+00 9.859865e+00 8.792783e+00 2091
-4.636287e+01 5.609384e+00 8.545393e+00 2092
-2.539760e+01 -1.509364e+01 1.777958e+01 2093
3.017393e+01 7.580522e+00 2.623187e+00 2094
-3.360013e+01 1.956215e+01 2.815793e+01 2109
-9.409662e+00 -6.284936e+00 6.719591e+00 2118
-2.862014e+01 2.472691e+01 4.936454e+00 2126
4.586417e+01 9.827442e+00 4.097778e+00 2128
1.413195e+01 -1.528540e+01 1.851984e+01 2129
-1.010761e+00 2.046561e+01 2.456067e+01 2137
1.164413e+01 2.905608e+00 6.246092e+00 2142
4.462054e+01 9.975071e+00 1.457174e+01 2145
2.339200e+01 2.356428e+01 2.536050e+01 2148
-8.794316e+00 -1.539434e+01 1.306713e+01 2153
3.567293e+01 1.470247e+01 1.395197e+01 2154
-1.492239e+01 1.918934e+01 1.748859e+01 2159
1.185081e+01 -4.907181e-01 1.340189e+01 2166
-4.119798e+01 7.750848e+00 9.439603e+00 2191
1.050038e+01 2.328222e+01 1.797812e+00 2200
-6.784904e+00 -8.825872e+00 1.200656e+01 2210
-3.727746e+01 7.565440e+00 2.496567e+01 2217
1.517771e+01 -4.892070e+00 2.515314e+01 2227
9.340995e+00 -1.308634e+01 2.829202e+01 2233
3.422301e+01 2.514803e+00 4.078891e+00 2234
3.953586e+01 -1.901313e+01 2.495767e+01 2238
-2.920702e+01 9.519891e+00 2.413004e+01 2240
-3.638896e+01 -1.151800e+01 2.331351e+01 2244
-7.562729e+00 1.815937e+01 1.075257e+01 2252
-4.105094e+01 -1.256459e+01 3.849521e+00 2253
4.607193e+01 -2.462575e+01 2.032550e+01 2258
-4.244246e+01 9.119887e+00 1.071942e+01 2269
3.611416e+01 -5.822773e-01 5.975849e+00 2270
2.247446e+01 1.898222e+01 2.585988e+01 2287
1.039787e+01 9.229623e+00 1.586118e+01 2292
-3.248088e+01 1.296331e+01 2.166293e+00 2297
-1.751217e+01 -7.041774e+00 2.875143e+01 2307
2.811490e+01 1.075575e+01 8.815831e+00 2314
3.684840e+01 8.927491e+00 1.744015e+01 2334
1.405351e+01 7.405847e+00 2.912921e+01 2357
-9.265981e+00 2.370219e+01 2.662239e+01 2361
-1.815182e+01 9.744452e+00 2.474966e+01 2372
-2.073830e+01 -1.518357e+01 6.354744e-01 2386
-4.623286e+01 2.005005e+01 1.363839e+01 2391
6.714457e+00 2.277302e+01 2.451414e+01 2399
3.802824e+01 -9.492225e+00 2.673072e+00 2408
8.538406e+00 2.286545e+01 1.178250e+00 2425
-2.976942e+01 -8.579845e+00 2.340082e+01 2442
2.552394e+01 1.784116e+01 2.376096e+01 2451
-1.002070e+01 -1.603912e+01 2.211239e+01 2452
-1.554095e+01 -1.713547e+01 1.896089e+01 2454
4.630647e+01 -1.617636e+01 2.798450e+01 2494
-2.423277e+01 -6.899330e+00 1.734786e+01 2520
4.379897e+01 -2.291486e+01 1.584607e+01 2526
-2.746959e+01 1.171634e+00 1.286123e+00 2528
2.532995e+01 -1.844265e+01 2.515488e+01 2542
-2.735675e+01 8.699183e+00 2.211014e+01 2544
-1.425170e+01 1.184915e+01 1.662168e+01 2556
-1.139189e+01 -1.486061e+00 2.661791e+01 2566
-1.299101e+00 -1.222293e+01 5.266186e+00 2571
-7.252860e+00 9.933307e+00 1.491278e+01 2586
2.521892e+01 -8.237330e+00 2.276343e+01 2587
-3.396274e+01 2.228795e+01 2.968369e+01 2594
4.448963e+01 -2.992380e+00 1.456721e+01 2595
-4.578066e-01 1.471034e+01 7.741821e+00 2597
1.054852e+01 1.835880e+01 1.201398e+01 2598
-8.839677e+00 -2.224589e+01 1.668737e+00 2607
-1.433832e+01 -2.224874e+01 2.583343e+01 2633
3.035768e+01 2.156128e+01 2.711197e+01 2637
2.379738e+01 2.268175e+01 1.232446e+01 2640
1.939879e+01 -1.295524e+01 1.085621e+01 2644
-1.085201e+01 -9.437526e+00 4.410258e+00 2646
-4.431578e+01 -1.865257e+01 9.216576e+00 2649
-6.774531e+00 -1.695934e+01 2.713813e+01 2651
-4.236544e+01 -1.390981e+01 1.441890e+01 2653
-3.897240e+01 5.074085e+00 2.243716e+01 2670
-1.267084e+00 1.120344e+01 3.066850e+00 2704
-1.658604e+01 -1.962216e+01 1.537127e+01 2710
4.567502e+01 -4.337802e+00 2.688792e+01 2713
2.472277e+01 -5.770806e-01 1.029605e+00 2717
3.623640e+01 1.690080e+01 2.147702e+01 2731
4.586820e+01 -1.352657e+01 2.757315e+01 2734
2.847882e+01 -1.650503e+01 2.690470e-02 2739
-2.467306e+01 8.513974e+00 1.366604e+01 2752
-4.982370e+01 2.509227e+00 2.867336e+01 2755
-3.972554e+01 5.965448e+00 1.699332e+01 2760
-1.453776e+01 -2.296304e+01 2.940188e+01 2765
4.501511e+01 1.156729e+01 1.477422e+00 2769
4.402489e+01 8.029236e+00 2.439218e+01 2771
-1.997042e+01 -2.148532e+01 2.789704e+01 2772
2.557054e+01 -1.868242e+01 3.433938e+00 2782
6.626021e+00 -1.070037e+01 2.989236e+01 2787
-2.163576e+01 4.580243e+00 1.319336e+00 2795
2.030576e+01 -9.267687e+00 2.413093e+01 2800
1.927835e+00 -2.286153e+01 8.561877e+00 2814
1.572886e+01 1.729426e+01 2.745606e+01 2816
-3.525723e+01 2.238833e+01 4.235378e+00 2836
-3.275650e+01 -1.656756e+00 1.010114e+01 2848
-4.825049e+01 4.744048e+00 2.689534e+01 2860
-3.941662e+01 1.816190e+00 2.443974e+01 2866
-8.674811e+00 9.521604e+00 4.945938e+00 2868
-4.318874e+01 -5.204625e+00 1.418086e+01 2874
-1.679032e+01 -2.290912e+01 1.907963e+00 2877
1.940382e+01 1.145220e+00 4.082982e+00 2879
4.721471e+01 2.172772e+01 2.332256e+01 2883
4.621001e+00 1.545644e+01 6.843465e+00 2906
-1.021379e+01 1.038141e+01 2.439191e+01 2907
3.564659e+01 1.875414e+01 2.025558e+00 2923
-2.542385e+01 -1.968632e+01 2.441352e+01 2926
-2.589461e+01 -7.076183e-01 1.339137e+01 2940
-2.704496e+01 1.917252e+01 1.881870e+01 2943
4.278473e+01 -1.363265e+01 1.931527e+01 2952
2.685624e+01 -5.138444e+00 2.129512e+00 2956
6.541199e+00 -2.156707e+01 1.115788e+01 2970
-4.787038e+01 -2.202770e+00 3.957600e+00 2971
2.760473e+01 -1.156909e+01 2.821016e+01 2982
1.493200e+01 1.176027e+01 1.576650e+01 2990
-3.199772e+01 1.657381e+01 1.837163e+01 2995
-2.057501e+01 5.578404e+00 9.750108e+00 2998
-1.410027e+01 1.568186e+00 1.173590e+00 3008
8.242776e+00 5.776147e+00 2.948550e+01 3025
-3.826456e+01 6.088862e+00 2.653163e+01 3028
3.262807e+01 -2.472256e+01 9.383234e-01 3044
1.743260e+01 1.789839e+01 2.351245e+01 3059
-4.436009e+01 -1.981632e+01 2.048067e+01 3067
4.312636e+00 -9.855398e+00 2.221467e+01 3081
2.050266e+01 9.718495e-01 1.950868e+01 3083
-2.327214e+01 -1.086214e+01 1.100582e+01 3089
-3.521418e+01 -1.854321e+01 1.619639e+01 3103
8.393981e+00 1.046710e+01 1.018550e+01 3104
-2.771886e+01 1.622649e+01 2.952591e+01 3120
1.780551e+01 1.718327e+01 7.967745e+00 3123
-1.441376e+01 -1.127122e+01 2.913521e+01 3134
-4.820471e+01 -1.025939e+01 2.006014e+01 3140
2.724221e+01 -2.320492e+00 6.962352e-01 3156
4.606474e+01 -8.672165e+00 2.813234e+00 3157
-4.183827e+01 -1.661908e+01 2.870705e+00 3198
1.188741e+01 -7.003839e+00 2.693770e+01 3200
4.874162e+01 2.400499e+01 2.829849e+01 3209
4.269555e+01 2.245884e+01 2.756646e+01 3218
-2.295968e+01 1.590192e+01 2.088506e+00 3223
-1.291158e+01 1.138038e+00 1.337432e+01 3244
3.103610e+01 5.560623e+00 2.017019e+01 3248
2.573590e+01 -1.346413e+01 2.399320e+01 3254
-4.585130e+01 -1.967414e+01 2.645656e+00 3258
4.561175e+01 -3.523422e+00 1.089093e+01 3259
4.901287e+00 2.062473e+01 2.711983e+01 3262
4.863943e+01 -4.200330e+00 1.921121e+01 3263
3.170226e+01 -1.683340e+01 4.047390e+00 3273
-4.411629e+00 -2.057012e+01 2.351119e+01 3285
4.212298e+01 -1.643109e+01 3.592406e+00 3308
2.664718e+01 1.577046e+01 5.547728e+00 3317
-3.945542e+01 -7.217557e+00 6.299988e-01 3321
-2.679795e+01 2.487272e+01 2.180406e+01 3322
-3.698007e+01 -2.140291e+01 2.927942e+01 3323
2.379302e+01 1.005029e+01 3.370590e+00 3333
3.547856e+01 1.324146e+01 1.421207e+01 3347
2.108429e+01 -1.003009e+01 3.863346e+00 3348
-2.031845e+01 -2.111010e+01 4.067134e+00 3353
-1.592077e+01 -2.054416e+01 2.806833e+01 3357
3.755218e+01 -6.986148e+00 1.013521e+01 3366
-2.256419e+01 1.192637e+01 9.700955e+00 3375
4.230397e+01 -6.299710e+00 1.455536e+00 3398
-3.716401e+01 1.714975e+01 6.153703e+00 3402
-4.117397e+01 1.139979e+01 2.752931e+01 3415
-2.182740e+01 1.686273e+01 2.514865e+00 3431
-2.645726e-01 -8.013576e+00 2.104181e+01 3433
3.022198e+01 -1.483878e+01 2.930203e+01 3445
-3.634023e+01 -2.256865e+01 2.140929e+01 3447
3.352501e+01 1.703827e+01 2.193426e+01 3456
-2.351959e+01 -9.121202e+00 2.105187e+01 3460
-4.311627e+01 2.045583e+01 2.421526e+01 3461
4.766608e+01 -2.324680e+01 1.921664e+01 3463
2.302937e+00 8.352034e+00 2.968952e+01 3464
-3.452660e+01 -1.275595e+00 1.565280e+01 3484
2.029913e+01 -2.379342e+01 3.893103e+00 3487
2.580533e+01 -6.455443e+00 2.224720e+01 3488
2.455398e+01 1.644829e+00 8.162681e+00 3491
3.567240e+01 -3.951289e+00 1.762502e+01 3492
-9.541253e+00 3.064907e+00 2.686923e+01 3498
7.711281e+00 -1.213556e+01 1.262417e+01 3503
-3.603303e+01 -2.393653e+01 2.175979e+01 3526
3.038808e+00 1.540411e+01 2.134665e+01 3527
-4.121097e+01 -4.575777e+00 9.366043e+00 3532
3.249157e+01 -4.362713e-01 7.114349e+00 3535
-3.029132e+01 -1.732893e+01 2.114519e+01 3538
-2.440932e+01 -7.022567e+00 1.603973e+01 3562
4.916571e+01 -1.755260e+01 1.531346e+01 3578
2.497847e+01 8.638160e+00 9.965636e+00 3593
-2.910607e+01 -2.367140e+01 5.764173e+00 3604
-2.087042e+01 -1.554542e+01 1.456877e+01 3612
1.630583e+01 -1.110992e+01 2.374651e+01 3614
4.306442e+01 -6.002119e+00 1.416124e+01 3621
-4.624075e+01 -1.584868e+01 2.147642e+01 3626
-3.560422e+01 -1.483587e+00 1.098490e+01 3639
-4.858356e+01 3.348288e-01 2.393943e+01 3643
-2.979401e+01 1.017462e+01 2.429576e+00 3652
-6.739225e+00 -1.652774e-01 1.121145e+01 3659
-2.142701e+01 -1.553799e+01 1.521519e+01 3663
1.937256e+01 2.078900e+01 1.932981e+01 3669
4.635434e+01 -2.100231e+00 1.571256e+00 3675
4.356499e+01 -5.135820e+00 1.960762e+00 3677
-7.440546e-01 -1.718549e+01 4.633155e+00 3679
-3.081703e+01 5.749031e+00 1.711688e+01 3682
-3.704474e+01 -1.264742e+01 2.041472e+01 3685
-3.196978e+01 7.411453e-01 1.966445e+00 3686
4.295026e+01 -1.237442e+01 8.146331e+00 3713
4.768059e+01 -3.001143e+00 2.573839e+01 3717
-1.787362e+01 1.122586e+01 2.058933e+01 3727
-2.136029e+01 -1.165670e+01 2.883857e+01 3729
-2.590508e+01 -2.411571e+01 9.603234e+00 3730
2.320719e+01 -5.885136e-01 2.076286e+01 3733
-5.104367e+00 3.056799e-01 7.454277e+00 3734
2.653506e+01 1.626369e+01 2.907052e+01 3736
2.901028e+01 5.118477e-01 7.997272e+00 3741
1.426320e+01 1.234695e+01 2.817483e+01 3747
-4.685022e+01 -1.466270e+01 2.889359e+01 3755
-5.551041e+00 -1.533976e+01 1.484839e+01 3758
-1.891630e+01 -9.492458e+00 2.664202e+01 3760
-4.510415e+01 2.661659e+00 2.958995e+01 3761
-3.022411e+00 -1.818782e+01 1.524456e+01 3762
-4.538695e+01 -6.076880e+00 2.445787e+01 3766
3.935997e+01 1.798974e+01 2.526921e+01 3771
-3.176629e+01 -4.350849e+00 2.396866e+01 3780
4.535689e+01 2.900776e+00 8.132563e+00 3788
-8.627626e+00 -1.319937e+01 2.143846e+00 3798
2.512482e+01 -1.738434e+01 2.736833e+01 3800
9.544012e+00 -1.558993e+01 1.464254e+01 3801
2.958183e+01 2.053312e+01 1.811667e+01 3804
-2.208373e+01 8.983385e+00 1.094480e+01 3820
3.901528e+01 -6.654469e+00 3.074380e+00 3836
1.011715e+01 -1.258008e+01 3.992080e+00 3844
-3.915427e+01 1.336716e+01 2.547489e+01 3849
-1.949958e+01 -4.442744e+00 1.719970e+01 3854
3.402393e+01 1.465891e+01 1.938224e+01 3856
3.907207e+01 1.980932e+01 1.867161e+00 3857
6.342926e+00 2.132351e+01 1.680754e+01 3858
3.522395e+01 1.467854e+01 1.492049e+01 3859
-1.530932e+01 -2.478861e+01 1.584109e+01 3865
4.819464e+01 1.855049e+01 1.793800e+01 3880
3.271316e+01 -6.064597e+00 8.650831e+00 3889
1.592110e+01 -1.981323e+01 1.553253e+00 3910
5.195781e+00 -2.190739e+01 2.253116e+01 3911
4.526169e+01 -2.164438e+01 1.922067e+01 3929
4.731715e+01 -4.860516e+00 2.767375e+01 3930
-2.940238e+01 2.175747e+01 2.273371e+01 3935
3.551531e+01 -2.859577e+00 4.819287e+00 3953
1.634189e+01 5.736732e+00 2.491744e+01 3957
3.116467e+01 1.878864e+01 2.558233e+01 3963
4.658435e+00 7.680581e+00 1.481329e+01 3969
2.703941e+01 1.947699e+01 8.349960e-01 3973
-3.470352e+01 -1.245781e+01 2.320769e+01 3984
-1.456445e+01 -9.136322e+00 1.965502e+01 3989
-3.199069e+01 -2.871587e-01 6.254757e+00 4011
3.853303e+01 1.832002e+01 1.192312e+01 4016
8.998238e+00 -1.363574e+00 2.006891e+01 4017
-1.529567e+01 -7.079269e+00 1.161978e+01 4020
-4.482132e+01 9.327311e+00 2.091539e+01 4029
3.775658e+01 -9.067597e+00 2.912224e+01 4034
-5.080537e+00 8.539888e+00 1.624090e+01 4036
-2.029757e-01 -1.623030e+00 4.978193e+00 4037
-1.330779e+01 -7.012422e+00 8.375808e+00 4039
-2.862631e+00 3.048292e+00 2.705834e+01 4046
-4.638376e+01 -9.455337e+00 1.235520e+01 4057
4.810135e+01 -1.744070e+01 2.975653e+01 4061
1.941685e+01 8.480239e+00 2.557809e+01 4066
-3.785910e+01 -7.871491e+00 9.002816e+00 4079
2.698854e+01 1.414579e+01 7.709618e+00 4080
-3.181770e+01 5.676653e+00 1.562802e+01 4088
-2.474706e+01 -2.241626e+01 1.048389e+01 4104
4.297709e+01 -1.572037e+01 2.266361e+01 4106
3.589855e+01 -2.455649e+01 7.083816e+00 4120
2.476154e+01 1.865214e+01 1.318777e+01 4144
-4.690877e+01 1.527879e+01 2.471190e+01 4150
-2.427897e+01 -3.655523e+00 1.446277e+01 4152
4.659782e+01 1.449310e+01 2.378569e+01 4161
4.042111e+01 -4.869352e+00 5.514621e+00 4170
9.216096e+00 4.389194e+00 2.024186e+01 4172
-5.602109e+00 -3.289045e+00 1.522980e+01 4178
1.793657e+01 1.613974e+01 1.255399e+01 4183
1.954014e-01 1.092194e+01 2.891233e+01 4184
2.478832e+01 -1.509947e+01 3.283600e+00 4194
-1.466781e+01 7.598715e+00 2.666093e+01 4201
1.895198e+01 -2.419409e+01 1.424125e+01 4209
-3.498322e+00 -2.324527e+01 4.368514e+00 4211
1.380447e+01 2.140261e+01 2.475794e+01 4239
-4.856876e+01 -1.854228e+01 2.144345e+01 4244
1.933097e+01 1.695154e+01 4.200190e+00 4245
3.636775e+01 7.237640e+00 2.048758e+00 4248
2.249140e+01 -1.940205e+01 1.561066e+01 4252
-1.294925e+01 -2.597699e+00 2.473255e+01 4256
-8.741050e+00 1.442448e+01 6.770813e+00 4265
7.072969e-01 2.135236e+01 2.288718e+01 4266
2.281431e+01 8.497768e+00 2.489587e+01 4268
4.186976e+01 -1.726579e+01 2.424294e+01 4302
4.982095e+01 1.505627e+01 1.780805e+01 4304
-3.795029e+01 5.155879e-01 2.327298e+01 4308
-2.941843e+01 2.263448e+00 2.975414e+00 4314
3.710028e+01 -7.906233e+00 2.477670e+01 4318
3.550619e+01 8.216172e+00 1.657792e+01 4325
-4.982041e+01 -4.670523e+00 1.849160e+01 4329
-1.429887e+01 -1.507394e+01 2.510234e+01 4332
1.648786e+01 -1.203464e+01 8.985742e+00 4340
-1.021008e+01 3.937499e+00 2.253029e+01 4347
2.634843e+01 9.719444e+00 2.998421e+01 46884
-2.880620e+01 -4.642120e-01 5.293488e-01 4351
9.969020e+00 -5.603335e+00 1.313545e+01 4352
-2.020722e+01 9.942845e+00 2.801773e+01 4353
1.666162e+01 1.666854e+01 2.876725e+00 4359
-4.118765e+01 1.537258e+01 1.269107e+01 4360
-2.219393e+01 8.833826e+00 3.060736e+00 4370
4.364675e+01 -8.865153e+00 4.299889e+00 4378
-2.640759e+01 1.962417e+01 1.068671e+01 4389
1.617808e+01 -2.086574e+01 6.718282e+00 4395
8.947687e+00 1.559265e+01 2.357718e+01 4396
-1.340828e+01 2.140381e+01 1.968143e+01 4402
4.129326e+00 -1.671343e+00 1.830637e+01 4404
4.191796e+01 -9.310443e+00 2.878965e+00 4408
4.840429e+01 -1.993599e+01 2.191078e+01 4409
1.244429e+01 9.868879e+00 7.422183e-01 4423
-2.615281e+00 -3.234653e+00 2.713926e+01 4432
-2.673944e+01 1.465022e+01 1.773498e+01 4434
-3.572739e+01 2.567910e+00 1.414757e+01 4435
1.906651e+01 1.167759e+01 1.418524e+01 4448
-2.449412e+01 1.217352e+01 2.841027e+01 4453
-4.284039e+01 8.694980e+00 2.450790e+01 4462
-1.384853e+01 1.932491e+01 2.610227e+01 4470
-1.578358e+01 2.331373e+01 4.643707e+00 4480
2.417035e+01 2.084168e+01 1.500843e+01 4481
3.301365e+01 3.042660e+00 2.339714e+01 4485
-1.107134e+01 1.226029e+01 1.402578e+01 4488
1.522612e+01 -8.162995e+00 8.595215e+00 4511
2.083374e+01 7.428173e-02 2.028270e+01 4515
3.055848e+01 2.608833e+00 1.085077e+01 4524
-6.639027e+00 -2.005429e+01 1.008932e+01 4534
2.484375e+00 9.888793e+00 2.412214e+01 4537
-1.545483e+01 1.277736e+01 4.367511e+00 4538
7.566522e+00 1.142624e+00 2.121597e+01 4541
-2.923243e+01 1.300005e+01 1.044008e+01 4544
-4.173633e+00 1.923337e+01 1.753744e+01 4578
1.681074e+01 1.198774e+01 1.965247e+01 4584
-3.909662e+01 6.265746e+00 1.738897e+01 4602
2.987269e+01 -1.103250e+01 8.803115e+00 4606
4.801181e+01 2.011363e+01 3.440593e+00 4614
4.502631e+01 -7.952270e-01 4.446578e+00 4618
7.718407e+00 -2.127610e+00 8.224547e+00 4620
-3.203948e+01 -5.235463e+00 8.873664e-02 4621
3.863323e+01 -1.236176e+01 7.570973e+00 4623
-5.736786e+00 -2.254637e+01 6.809972e+00 4624
3.749974e+01 2.806165e+00 1.510868e+01 4626
1.089316e+01 -3.153224e+00 1.877864e+01 4635
-3.392466e+01 1.717766e+01 2.730212e+01 4636
-4.119268e+01 5.328615e-01 2.257384e+01 4638
-4.363095e+01 -1.151680e+01 1.988946e+01 4640
4.753719e+01 1.434940e+01 2.844530e+00 4645
-4.355720e+01 -1.491078e+01 2.963686e+01 4646
1.088461e+01 -2.231581e+01 1.618210e+01 4654
1.941086e+01 -5.512163e+00 1.601919e+01 4659
-1.935786e+01 1.776707e+01 2.378317e+01 4660
2.378505e+00 -2.318443e+01 1.232677e+01 4663