Title = Snapshot #5
Variables=X Y Z PartID
Zone I= 6431, F=POINT
-8.775609e+00 2.411634e+01 7.740245e+00 0
6.385194e+00 -1.005225e+01 2.066594e+01 2
9.542454e-01 1.168946e+01 2.815192e+01 8
3.554423e+00 1.792261e+01 2.081297e+01 12
-1.168306e+01 5.605778e+00 9.447193e+00 14
-3.768101e+01 1.996206e+01 1.055521e+00 17
-2.680250e+01 1.281842e+01 1.067180e+01 18
2.465110e+01 2.477920e+01 1.329597e+01 20
-4.232652e+01 -2.224861e+01 1.735300e+01 21
-2.680943e+01 -1.508196e+01 2.683432e+01 23
1.348760e+01 -1.235839e+01 1.379192e+01 31
-2.063686e+01 -1.663355e+00 5.261627e+00 41
3.038614e+00 7.922317e+00 1.149990e+01 42
-2.907613e+01 3.307711e+00 2.523226e+01 45
-7.953078e-01 -9.051608e-01 2.833741e+01 46
4.514180e+01 5.716002e+00 2.544793e+01 68
-3.223628e+01 -1.376159e+01 6.679373e+00 80
2.043618e+01 1.291282e+01 7.226502e+00 91
2.348669e+01 -1.143726e+01 2.258844e+01 95
2.508893e+01 1.518062e+01 2.702236e+01 98
-4.248605e+01 5.844123e+00 2.874618e+01 133
3.827399e+01 1.365203e+01 1.571481e+01 135
2.441186e+00 -8.610088e+00 1.562616e+01 137
2.742165e+01 9.377409e+00 1.375473e+01 150
-2.166580e+01 -7.425862e+00 1.049900e+01 158
-2.470906e+01 -2.236592e+01 1.709650e+01 166
2.444767e+01 1.014935e-01 1.512822e+01 171
1.832360e+01 1.167329e+01 4.618575e+00 181
-1.467781e+01 9.447581e+00 1.313842e+01 214
-2.322878e+01 2.293824e+01 8.819010e+00 217
-4.664647e+01 -1.275788e+01 2.350617e+01 219
-1.356839e+00 1.859900e+00 9.122131e+00 233
1.688064e+01 -1.733864e+01 5.060822e+00 257
-4.765127e+01 -2.396038e+01 1.981214e+01 279
3.990120e+00 2.083018e+00 1.795250e+01 295
-4.810898e+01 -1.845865e+01 2.328028e+00 309
2.418953e+01 -2.455234e+01 7.055174e+00 311
3.270605e+01 -1.933733e+01 7.398134e+00 317
1.447125e+00 -5.190171e-01 2.325627e+01 319
5.116276e+00 -1.912247e+01 2.249818e+01 321
-4.738777e+01 1.486796e+01 1.483081e+01 325
-3.417670e+01 -1.059657e+01 7.303246e+00 340
3.561091e+01 2.375598e+01 2.699572e+01 352
3.840275e+01 1.564580e+01 1.648470e+01 363
4.741590e+01 -1.143677e+01 2.769952e+01 364
-1.924481e+01 2.345208e+01 3.577222e+00 373
3.498255e+01 -3.080519e-01 2.806795e+01 375
-3.105051e+01 1.336686e+01 4.297132e+00 396
1.120339e+01 9.968678e+00 1.278606e+01 412
-2.015449e+01 -1.953201e+01 2.608273e+01 425
1.520746e+00 1.382231e+01 3.710993e-01 426
-1.237822e+01 -1.690472e-02 7.551314e+00 427
1.486142e+01 1.070330e+01 2.454649e+01 441
1.091966e+01 1.795851e+01 2.634756e+01 443
4.932419e+01 -1.424753e+01 2.998761e+01 453
1.735310e+00 1.631099e+01 2.380016e+01 454
1.915499e+01 1.097709e+01 2.688674e+01 457
-8.836141e+00 2.202418e+01 1.692073e+01 467
2.807864e+01 -1.431657e+01 9.319251e+00 477
3.463796e+01 4.041360e+00 5.922267e+00 504
-1.334719e+01 6.169069e+00 1.266026e+01 505
3.209539e+00 1.286036e+01 2.994135e+01 506
-5.081201e+00 -1.295567e+01 1.014996e+01 510
-1.308852e+01 1.119344e+01 5.994388e+00 521
-2.078119e+01 -1.883899e+01 7.420103e+00 524
-4.343713e+01 7.613403e+00 2.104049e+01 536
1.293144e+01 1.781375e+01 8.795447e-01 537
-1.769307e+01 -1.332969e+01 2.933163e+01 555
4.097997e+01 1.496557e+01 2.677350e+01 558
-1.882665e+01 4.112646e+00 2.979378e+01 559
2.045813e+01 1.332585e+01 2.987322e+01 564
3.438922e+01 1.877534e+01 1.631918e+01 578
-8.889200e+00 2.056759e+01 4.421863e-01 581
-2.950678e+01 1.292376e+01 1.484564e+01 588
3.870388e+01 2.210707e+01 1.444834e+01 591
-8.089950e+00 1.712548e+01 2.535851e+01 594
-1.210746e+01 -2.456075e+01 6.289600e-01 611
3.711757e+01 1.610881e+01 2.252393e+00 629
-1.539656e+01 2.154392e+01 2.621349e+01 634
-5.668443e+00 -1.484894e+01 5.996382e+00 636
-2.437787e+01 -7.641931e+00 2.455208e+01 640
7.847518e+00 1.798196e+01 2.722974e+01 642
4.546026e+01 1.437790e+01 1.251219e+01 643
2.156278e+01 1.665099e+01 2.721067e+00 650
4.516672e+01 -2.335440e+01 8.282778e+00 657
-1.709270e+01 1.157726e+00 2.108673e+01 661
-4.824423e+01 -9.775247e+00 6.396720e+00 667
5.492659e+00 -1.201842e+01 2.437306e+01 674
2.459397e+01 -1.164733e+01 3.387730e+00 675
2.061992e+00 -1.613579e+01 1.440061e+01 686
3.542205e+01 2.535661e+00 1.947330e+01 687
8.885529e+00 -6.224397e+00 2.986664e+01 688
-3.240555e+01 -1.692300e+01 2.008752e+01 691
4.393013e+01 -8.910540e+00 2.730212e+01 695
-2.972804e+01 -6.009247e+00 9.537916e+00 697
-2.996555e+01 1.845619e+01 1.445168e+01 701
-3.024038e+01 -1.095705e+01 2.577055e+01 702
-2.378836e+01 1.691001e+01 2.720302e+01 704
4.354861e+01 -3.631032e+00 2.760991e+01 706
-2.659342e+01 -2.289873e+01 1.160026e+01 721
4.066433e+01 2.258236e+01 1.014863e+01 723
2.526995e+01 1.525760e+01 2.135940e+01 724
1.262557e+01 1.262557e+01 1.100853e+01 729
-9.939637e+00 -7.972435e+00 2.484133e+01 731
-4.132906e+01 2.439230e+01 2.981120e+01 733
-2.692049e+01 1.538427e+01 1.785081e+01 743
-4.922405e+01 2.552936e+00 2.784018e+01 745
2.595607e+01 1.016199e+01 2.862548e+01 747
-9.011950e+00 -4.222465e+00 3.419339e+00 749
2.757982e+01 -1.089418e+01 9.886128e+00 752
1.441849e+01 1.180332e+01 2.622019e+01 754
-3.119480e+01 1.879560e+00 2.207231e+01 763
3.676964e+01 2.463020e+01 4.779142e+00 764
-1.431295e+00 -1.308399e+01 3.006529e+00 776
-4.567926e+01 -2.372953e+01 4.031679e+00 782
3.083161e+01 -7.729764e+00 1.211296e+01 783
-2.255967e+01 9.145674e+00 6.513508e+00 791
-3.265604e+01 1.762252e+01 2.615465e+01 793
-3.345492e+00 1.755736e+01 2.407463e+01 797
4.431648e+00 -3.882297e+00 2.355304e+01 814
5.500850e+00 -1.291706e+01 2.759213e+01 823
2.882897e+01 2.090577e+00 1.642120e+01 841
-3.007927e+00 -2.490500e+01 1.168343e+01 847
-4.905652e+01 -1.802191e+01 2.977851e+00 848
2.181179e+01 1.792174e+00 2.473746e+01 852
-1.412667e+00 -6.670607e+00 3.271343e+00 853
8.925685e+00 5.089997e+00 1.062087e+01 860
1.229305e+01 -6.761791e+00 3.817038e+00 862
1.608675e+01 1.336495e+01 9.634703e-02 865
-6.052908e+00 1.220029e+01 1.486890e+01 871
-1.787311e+01 -1.916438e+01 1.841810e+01 879
4.576197e+00 -1.519528e+01 2.165165e+01 890
-4.138691e+01 2.185551e+01 3.978883e+00 891
-4.018718e+01 2.012056e+01 2.952692e+01 892
-3.815805e+01 1.124102e+01 1.600248e+01 893
-8.331743e+00 1.736730e+00 1.492357e+01 899
1.357320e+01 -2.098318e+01 1.739701e+01 901
3.697873e+01 5.133355e+00 1.320817e+00 903
-3.202345e+01 7.557845e+00 1.426984e+01 918
-4.225598e+01 -4.070963e+00 1.900026e+01 928
-1.874831e+00 2.248600e+01 2.849149e+01 938
-1.678337e+01 2.264600e+01 2.518075e+01 939
-3.350847e+01 -1.145313e+01 9.457642e+00 961
-1.378848e+01 -7.393698e+00 2.942238e+01 971
1.262732e+01 -2.289581e+01 1.636886e+01 974
1.164916e+01 -3.749151e-01 2.520244e+01 980
-8.393356e+00 -1.338064e+01 2.038732e+00 984
1.881993e+01 1.977215e+01 2.773735e+01 994
-3.613201e+01 -8.350162e+00 5.845174e+00 1000
2.317140e-02 7.900191e+00 2.678843e+01 1005
-4.028945e+01 1.042877e+01 1.957771e+01 1010
-2.161676e+01 1.348707e+01 2.987293e+01 1013
-4.411500e+01 5.669248e+00 2.185930e+01 1019
-4.890659e+00 -1.496029e+01 9.892152e-01 1024
-3.063457e+01 -1.269162e+01 2.397434e+01 1033
-1.868817e+00 2.471527e+01 1.786661e+01 1042
3.997894e+01 7.995233e+00 2.219128e+01 1046
5.348625e+00 2.379863e+01 8.377883e+00 1054
-3.896409e+00 -6.776282e+00 2.408212e+01 1056
-4.102886e+01 2.307822e+01 3.796453e+00 1058
1.670582e+01 2.386026e+01 3.835418e+00 1091
1.995663e+01 2.014086e+01 4.882934e+00 1096
-1.765983e+01 -1.107014e+01 2.737086e+01 1100
4.490118e+01 -2.297799e+01 2.048358e+01 1104
-5.300919e-01 1.234062e+01 8.280382e+00 1119
4.822654e+01 7.103251e+00 7.135062e+00 1122
1.698062e+01 1.706348e+01 6.427738e+00 1133
-3.192583e+01 1.973840e+01 1.404629e+01 1137
1.462854e+01 1.092813e+01 2.588572e+00 1140
-3.531350e+01 -1.989516e+01 1.234169e+01 1147
1.293976e+01 1.457922e+01 1.471866e+01 1168
2.044047e+01 9.705968e+00 6.486519e+00 1183
-2.731384e+01 -1.882713e+01 1.162394e+01 1196
3.820121e+01 6.366373e+00 2.171199e+01 1210
-1.871563e-02 1.889912e+01 3.821746e+00 1226
-2.107343e+01 1.593898e+01 2.301539e+01 1230
-4.699265e+01 -1.673144e+01 1.139712e+00 1232
2.211504e+01 8.732610e-01 5.254345e+00 1238
4.283309e+01 -3.981451e+00 1.210518e+01 1242
-1.022362e+01 -8.935062e+00 2.971005e+00 1250
4.600262e+01 -1.583505e+01 1.270321e+01 1252
-6.901483e+00 6.467736e+00 2.944481e+01 1256
-6.011385e+00 1.676579e+01 2.048425e+00 1260
2.952542e+01 5.614656e+00 2.427473e+01 1273
-3.170042e+01 -5.235557e+00 2.167668e+00 1278
2.259807e+01 -9.973933e+00 1.556445e+00 1284
-2.282285e+01 3.328150e+00 2.655523e+01 1286
2.859088e+01 9.943644e+00 9.236242e-01 1292
4.676791e+01 2.328105e+01 7.480324e+00 1299
-7.454260e+00 -8.142606e-01 2.614063e+01 1312
-4.194319e+01 2.106374e+00 2.937384e+01 1315
4.961845e+01 1.399863e+01 1.995596e+01 1322
-7.791232e+00 -5.718204e+00 1.839597e+01 1323
-2.970448e+01 -2.454492e+01 2.364601e+01 1326
-3.193840e+01 -2.353197e+01 2.251278e+01 1332
2.248811e+01 -1.956984e+01 2.529610e+01 1333
-4.924134e+01 -4.046046e+00 1.796645e+01 1334
1.789385e+01 -1.973785e+01 1.361872e+01 1337
-2.320943e+01 7.045045e+00 4.661989e+00 1340
-1.094500e+01 -1.279600e+01 2.952479e+01 1342
-5.108545e+00 5.985783e+00 1.728562e+01 1346
-5.528652e+00 -1.900483e+01 2.957913e+01 1347
1.918866e+01 1.513037e+01 1.668929e+01 1350
5.752200e+00 -6.213193e+00 2.466902e+01 1351
3.049851e+01 1.189214e+00 1.889018e+01 1352
-1.122435e+01 -4.632714e+00 9.305777e+00 1356
4.467507e+01 2.052735e+01 2.908028e+01 1361
8.755875e-01 -7.076546e+00 1.388257e+01 1362
-4.855171e+01 5.228250e+00 1.428191e+01 1374
2.926823e+01 8.311509e+00 1.368545e+01 1375
2.634256e+01 1.069637e+01 1.528236e+01 1382
1.368468e+01 -3.300948e+00 2.124731e+01 1385
-3.565572e+00 -2.237362e+01 1.467125e+01 1395
4.776947e+01 2.262429e+01 1.042955e+01 1396
1.195214e+01 1.209396e+01 1.370289e+01 1415
7.773027e+00 -1.780290e+01 2.059610e+01 1420
-1.259901e+01 1.985511e+01 6.517952e+00 1421
1.501181e+01 -1.704829e+01 2.126300e+01 1423
4.739337e+01 -1.816092e+01 1.813349e+01 1428
1.486822e+01 -1.133437e+01 8.069233e+00 1442
4.524033e+01 -3.910312e+00 8.915497e-01 1446
4.027247e+00 -1.187324e+00 1.649022e+01 1451
5.743420e+00 6.001068e+00 1.198540e+01 1455
3.298955e+01 -9.202620e+00 1.745179e+00 1460
6.800857e+00 -1.517639e+01 1.780797e+01 1470
-2.605507e+01 -7.682645e-01 6.443621e+00 1471
-3.639876e+01 -7.986195e+00 2.064742e+01 1472
3.429427e+01 -1.004348e+01 1.292441e+01 1474
-8.489220e+00 -1.260291e+01 1.383772e+01 1478
-4.728503e+01 1.652371e+01 1.896113e+01 1479
-1.928564e+01 -1.278038e+01 1.337091e+01 1493
2.235042e+01 -1.704342e+01 1.039009e+01 1496
-7.341184e+00 -7.545165e+00 2.942630e+01 1500
-4.355727e+01 1.239060e+01 1.181506e+01 1502
1.397608e+01 1.715595e+01 1.687701e+01 1514
-6.388553e+00 -1.062155e+01 2.601607e+01 1516
3.644812e+01 -3.119036e+00 6.665721e-02 1517
-8.992266e+00 1.975718e+01 1.635540e+01 1518
-1.773904e+01 -1.953055e+01 7.903366e+00 1523
3.913837e+01 -1.984842e+01 2.668621e+01 1531
-9.726822e+00 1.883304e+01 3.347267e+00 1546
2.838503e+01 -2.417848e+00 8.312673e+00 1551
1.718118e-01 1.756989e+01 2.566240e+01 1576
-3.999237e+01 1.363676e+01 1.916791e+01 1580
-4.506570e+01 1.790816e+01 1.692867e+01 1582
4.108241e+01 -1.597007e+01 1.923514e+01 1584
-1.078617e+01 -1.366152e+01 1.817212e+01 1589
-3.768554e+01 2.076037e+01 2.701565e+01 1591
-1.122260e+01 1.166735e+01 2.601187e+01 1598
9.564618e+00 2.017472e+01 1.599126e+01 1606
-2.264067e-01 -8.273769e+00 2.133395e+01 1615
1.700211e+01 -1.329570e+01 4.392635e+00 1617
2.695758e+01 -6.193596e+00 1.072579e+01 1620
-1.199064e+01 1.122589e+01 2.807266e+00 1623
-4.127312e+01 -2.254819e+01 8.555435e+00 1634
1.651925e+01 2.473804e+01 2.308686e+01 1642
-1.095374e+01 -4.246341e+00 1.330535e+01 1655
-4.530406e+01 1.505973e+01 2.579470e+00 1667
2.523465e+00 -2.016557e+01 1.933244e+01 1669
3.711802e+00 -8.469793e+00 1.531321e+01 1687
-4.699809e+01 2.335338e+01 2.162998e+01 1688
4.761022e+01 -1.102499e+01 1.027713e+01 1694
-4.392702e+01 -1.042300e+01 7.927576e+00 1701
1.877323e+01 1.800542e+01 2.208877e+01 1709
4.140525e+01 -5.502755e+00 2.576490e+01 1727
2.141755e+01 1.010643e+01 2.081220e+01 1735
-3.445085e-02 6.462264e+00 8.726953e+00 1743
1.491944e+01 3.428642e+00 1.935950e+01 1744
-3.590540e+01 -1.017687e+01 2.995655e+01 1748
2.877170e+01 7.041498e+00 4.019190e+00 1752
4.048080e+01 1.388923e+01 1.358288e+01 1754
-4.518899e+01 2.130885e+01 1.661665e+01 1756
4.249485e+00 7.457425e+00 2.047335e+01 1757
-4.101992e+01 1.782361e+01 5.320434e-02 1761
2.032544e+01 -3.852663e+00 8.520448e-01 1763
-4.836224e+01 -4.365609e+00 2.098780e+01 1773
-1.092924e+01 -2.062158e+01 1.581177e+01 1777
3.242563e+01 -1.272926e+01 8.032961e-01 1779
3.961982e+01 -1.142524e+01 2.592247e+01 1782
1.417796e+01 1.428503e+01 1.047251e+01 1784
-4.052262e+01 -8.369152e+00 1.454025e+01 1794
4.692482e+01 2.450766e+01 1.742589e+01 1798
-4.230290e+01 3.479009e+00 2.926131e+01 1801
-4.117394e+01 -2.072894e+01 1.738762e+01 1810
4.407620e+01 -2.462780e+01 1.199377e+01 1819
1.028406e+01 -2.430362e+01 1.762253e+01 1833
3.257915e+01 -6.560759e+00 2.466736e+01 1862
-3.218014e+01 2.944213e+00 1.443222e+01 1874
5.727885e+00 1.489397e+01 3.031494e+00 1876
2.891833e+01 -2.485708e+01 1.375151e+01 1877
2.231724e+01 1.867020e+01 1.753092e+01 1888
4.371600e+01 1.527094e+01 2.447296e+00 1895
-2.035683e+01 9.211291e-01 1.034193e+01 1906
4.041603e+01 -1.237530e+01 2.421143e+01 1908
2.222263e+01 -1.453635e+00 5.266177e+00 1912
4.726033e+01 -2.440657e+01 2.246960e+01 1918
-3.650849e+01 1.511874e+01 1.347526e+01 1920
7.012346e+00 1.847332e+01 1.660955e+01 1931
-1.134622e+01 2.442517e+01 7.003054e+00 1953
3.806005e+01 1.014616e+01 2.636240e+01 1959
-5.785710e+00 6.371862e+00 1.785954e+01 1968
-2.424161e+01 2.663664e+00 1.798862e+01 1972
-3.036190e+01 2.164306e+01 3.362687e+00 1973
4.027265e+01 2.401410e+00 1.460129e+01 1984
4.831887e-01 -1.032193e+01 1.589323e+01 1987
4.485796e+01 -2.345512e+01 8.279932e+00 1988
1.492872e+01 4.439282e+00 2.765935e+01 1990
4.041651e+01 1.358501e+01 2.067133e+01 1996
1.437349e+01 1.350015e+01 7.534686e+00 1997
-3.259530e+01 -3.819127e+00 2.354880e+01 2002
7.892196e+00 3.267525e+00 2.451744e+01 2009
2.924447e+00 2.422083e+01 1.870476e+01 2029
2.847323e+01 -3.835142e+00 2.849692e+01 2042
1.404392e+01 1.232183e+01 1.371655e+01 2044
-1.268491e+01 -1.620004e+01 2.613711e+01 2054
4.657164e+00 9.108472e+00 8.812508e+00 2057
-2.103652e+01 7.583427e+00 2.168113e+01 2063
4.573816e+01 1.929748e+01 7.852722e+00 2080
-5.182518e+00 1.065241e+01 7.744563e+00 2091
-3.288584e+01 -9.307196e+00 1.927729e+01 2093
2.619234e+01 7.649335e+00 2.429169e+00 2094
4.895681e+01 3.777055e+00 2.937571e+00 2108
-4.414331e+01 1.944187e+01 2.799052e+01 2109
-1.605896e+01 -7.037273e+00 4.001357e+00 2118
4.186188e+01 9.647903e+00 4.119394e+00 2128
9.916118e+00 -1.511959e+01 1.765405e+01 2129
-7.142942e+00 2.023129e+01 2.283472e+01 2137
7.152816e+00 4.292797e+00 3.817763e+00 2142
3.762131e+01 1.093081e+01 1.466106e+01 2145
3.281417e+01 -2.921253e+00 2.981034e+01 2151
-1.655891e+01 -1.709769e+01 1.030373e+01 2153
2.914733e+01 1.578939e+01 1.410540e+01 2154
-2.397837e+01 1.791378e+01 2.220185e+01 2159
6.034707e+00 -1.555393e+00 1.088468e+01 2166
1.110921e+00 -1.685675e+01 2.875274e+01 2177
5.325999e+00 2.422634e+01 2.474489e+00 2200
-1.542409e+01 -8.713105e+00 9.393124e+00 2210
-4.431668e+01 8.387355e+00 2.013559e+01 2217
1.023852e+01 -6.389874e+00 2.399292e+01 2227
4.169560e+01 4.359627e+00 2.867000e+01 2228
-1.012065e+00 -1.201148e+01 2.328638e+01 2233
3.020821e+01 2.773221e+00 4.559578e+00 2234
3.303616e+01 -1.955956e+01 2.324656e+01 2238
-3.971358e+01 1.028942e+01 2.099909e+01 2240
-4.154377e+01 -1.248320e+01 1.785749e+01 2244
-1.489012e+01 1.714479e+01 8.306989e+00 2252
-4.958837e+01 -1.133958e+01 2.550291e+00 2253
3.130414e+01 -1.864512e-01 6.930000e+00 2270
1.235085e+01 2.145689e+01 2.697242e+01 2287
5.863394e+00 6.648405e+00 1.314322e+01 2292
-3.871274e+01 1.604227e+01 2.934485e+00 2297
-2.565210e+01 -7.545959e+00 2.918296e+01 2307
2.244475e+01 9.737767e+00 8.482847e+00 2314
2.792019e+01 1.026082e+01 1.966432e+01 2334
4.739613e+01 -1.111709e+01 1.858091e+01 2347
6.438365e+00 6.596279e+00 2.697156e+01 2357
-1.873231e+01 2.443051e+01 2.801897e+01 2361
-2.785749e+01 9.764195e+00 2.694797e+01 2372
-2.686485e+01 -1.201795e+01 2.474888e+00 2386
-1.860414e+00 2.208452e+01 2.279422e+01 2399
3.248846e+01 -8.455165e+00 3.390675e+00 2408
-3.876651e+00 -1.013831e+01 2.952613e+01 2424
4.419993e+00 2.340414e+01 1.768286e+00 2425
3.991739e+01 -1.950081e+01 1.830464e+01 2426
2.002788e+01 -3.933816e+00 2.924673e+01 2428
-3.889250e+01 -9.026278e+00 1.805957e+01 2442
1.642779e+01 2.177798e+01 2.491066e+01 2451
-1.645650e+01 -1.638526e+01 2.421176e+01 2452
-1.841958e+01 -1.829507e+01 2.202459e+01 2454
-1.031252e+01 2.433219e+01 3.107821e+00 2461
3.832709e+01 -1.791966e+01 2.641188e+01 2494
-3.286028e+01 -4.517070e+00 2.087408e+01 2520
4.669860e+01 -1.464572e+01 1.259177e+00 2527
-3.102667e+01 1.986691e+00 2.610309e+00 2528
1.720717e+01 -1.878959e+01 2.592377e+01 2542
-3.645223e+01 1.100999e+01 1.880034e+01 2544
-2.077946e+01 1.227282e+01 2.063942e+01 2556
-1.991653e+01 -2.832802e+00 2.771421e+01 2566
-8.238671e+00 -1.160870e+01 4.056198e+00 2571
4.967873e+01 2.210720e+01 3.421433e+00 2580
-4.517178e+01 -2.496070e+01 1.134504e+01 2584
-1.321015e+01 9.077615e+00 1.511106e+01 2586
1.788091e+01 -9.121284e+00 2.364873e+01 2587
-4.335743e+01 2.249732e+01 2.897347e+01 2594
3.863328e+01 -4.185529e+00 1.440336e+01 2595
-7.480300e+00 1.561493e+01 6.841712e+00 2597
4.503147e+00 1.706043e+01 1.227591e+01 2598
-1.499147e+01 -2.381100e+01 3.195409e+00 2607
-2.617488e+01 -2.167976e+01 2.564023e+01 2633
4.590293e+01 1.201641e+01 2.179520e+01 2634
2.046598e+01 2.426931e+01 2.637920e+01 2637
1.780728e+01 2.233485e+01 1.114396e+01 2640
1.326989e+01 -1.340215e+01 1.070162e+01 2644
-1.925422e+01 -8.698130e+00 5.051770e+00 2646
-1.224263e+01 -1.652342e+01 2.648720e+01 2651
-4.601622e+01 4.102512e+00 1.582574e+01 2670
-2.702402e+01 2.427755e+01 3.946608e+00 2691
-8.811629e+00 8.848813e+00 3.392591e+00 2704
-2.093813e+01 -1.987280e+01 1.943170e+01 2710
3.760716e+01 -5.222113e+00 2.664460e+01 2713
4.433405e+01 -1.730871e+01 2.137220e+01 2715
2.158141e+01 -6.165095e-01 6.922652e-01 2717
2.733318e+01 1.576810e+01 2.320140e+01 2731
3.686523e+01 -1.377038e+01 2.726813e+01 2734
2.820174e+01 -1.652286e+01 2.389266e-02 2739
-2.930773e+01 6.062626e+00 1.938621e+01 2752
-4.713631e+01 7.217598e+00 1.389115e+01 2760
-2.513128e+01 -2.203853e+01 2.741922e+01 2765
4.029368e+01 1.070265e+01 2.674673e+00 2769
3.445720e+01 9.193803e+00 2.559521e+01 2771
-3.236949e+01 -1.995556e+01 2.642846e+01 2772
1.842201e+01 -1.975231e+01 3.975489e+00 2782
-1.214649e+00 -8.806096e+00 2.640087e+01 2787
-2.749250e+01 5.488223e+00 2.833910e+00 2795
1.289984e+01 -1.038513e+01 2.618524e+01 2800
-8.547714e+00 -2.144930e+01 6.799721e+00 2814
3.482119e+00 1.632460e+01 2.917322e+01 2816
4.603457e+01 1.419254e+01 2.142674e+01 2819
-4.366782e+01 2.230667e+01 3.939594e+00 2836
-3.604736e+01 -8.576054e-01 8.420175e+00 2848
-2.786157e+01 -2.394421e+01 1.623428e+01 2852
4.377523e+01 1.822128e+01 2.269452e+01 2862
-4.552433e+01 1.307649e+00 1.691165e+01 2866
-1.753651e+01 1.053532e+01 6.953733e+00 2868
-2.192270e+01 -2.370622e+01 4.728295e+00 2877
1.426513e+01 1.386180e-01 5.487359e+00 2879
3.849625e+01 2.095505e+01 2.125784e+01 2883
-1.896793e+00 1.693998e+01 6.728533e+00 2906
-1.917705e+01 1.115434e+01 2.646683e+01 2907
3.082582e+01 1.682973e+01 1.976829e+00 2923
-3.664533e+01 -2.103752e+01 1.912588e+01 2926
-3.075926e+01 -2.055030e+00 1.709375e+01 2940
-3.430889e+01 1.615715e+01 1.567222e+01 2943
3.344361e+01 -1.448145e+01 1.955222e+01 2952
2.095783e+01 -5.477434e+00 1.611074e+00 2956
-1.244180e+00 -1.995455e+01 1.103193e+01 2970
1.922403e+01 -1.219749e+01 2.878760e+01 2982
9.247028e+00 9.178737e+00 1.728245e+01 2990
-3.948080e+01 1.350742e+01 1.223373e+01 2995
-2.364382e+01 5.004313e+00 1.306959e+01 2998
-3.241088e+01 2.470488e+01 7.618748e+00 3005
-2.232887e+01 1.788027e+00 1.122112e+00 3008
-2.113776e+00 5.584049e+00 2.757159e+01 3025
-4.474871e+01 5.291167e+00 2.193504e+01 3028
1.252391e+01 2.085735e+01 2.168052e+01 3059
-4.854761e+01 -1.832556e+01 2.288032e+01 3067
-2.526806e+00 -9.553893e+00 1.920361e+01 3081
1.627975e+01 -8.028776e-02 1.866764e+01 3083
-2.713570e+01 -1.243813e+01 1.377409e+01 3089
4.264453e+01 -1.402668e+01 1.854274e+01 3094
-4.246524e+01 -1.730455e+01 1.358188e+01 3103
3.767205e+00 1.213024e+01 1.043353e+01 3104
-5.042240e-01 9.151566e+00 2.968362e+01 3110
1.256422e+01 1.647541e+01 6.417222e+00 3123
-4.645322e+01 -2.016416e+00 2.868384e+01 3153
2.428965e+01 -4.102289e+00 5.250431e-01 3156
4.093635e+01 -7.483366e+00 3.956743e+00 3157
-4.550924e+01 -1.450734e+01 1.315723e+00 3198
5.673773e+00 -7.351590e+00 2.373686e+01 3200
3.492125e+01 2.279344e+01 2.568214e+01 3218
-2.874883e+01 1.783673e+01 1.110272e+00 3223
-1.733218e+01 3.331671e+00 1.274392e+01 3244
2.479855e+01 4.748262e+00 1.854925e+01 3248
1.934621e+01 -1.455653e+01 2.523641e+01 3254
4.393481e+01 5.033726e+00 1.160277e+01 3257
4.214359e+01 -4.589198e+00 1.097995e+01 3259
-1.782994e+00 1.917422e+01 2.428862e+01 3262
4.342633e+01 -6.656600e+00 1.823743e+01 3263
2.700525e+01 -1.687977e+01 3.350616e+00 3273
-8.594445e+00 -2.126686e+01 2.123275e+01 3285
3.639766e+01 -1.554078e+01 3.161313e+00 3308
2.230401e+01 1.493541e+01 5.705304e+00 3317
-4.359300e+01 -7.607481e+00 6.352734e-01 3321
1.919517e+01 7.843873e+00 2.517516e+00 3333
2.695065e+01 1.369455e+01 1.443992e+01 3347
1.714220e+01 -9.257831e+00 2.620534e+00 3348
-2.494902e+01 -2.039251e+01 2.446008e+00 3353
-2.674748e+01 -1.978557e+01 2.766748e+01 3357
3.221089e+01 -7.548227e+00 9.938505e+00 3366
-2.606905e+01 1.179086e+01 1.281292e+01 3375
4.636291e+01 9.237947e+00 2.550102e+01 3383
3.719433e+01 -5.641017e+00 1.968194e+00 3398
-4.519386e+01 1.564842e+01 4.350468e+00 3402
-2.813768e+01 1.811612e+01 2.411262e+00 3431
-5.705750e+00 -8.408386e+00 2.020133e+01 3433
-4.326090e+01 -2.440785e+01 1.773303e+01 3447
2.565729e+01 1.957732e+01 2.473227e+01 3456
-3.429294e+01 -6.601748e+00 2.341490e+01 3460
-4.784568e+01 1.974489e+01 2.050206e+01 3461
3.655783e+01 -2.472865e+01 1.931532e+01 3463
-7.570892e+00 7.607454e+00 2.939330e+01 3464
4.945813e+01 -1.952003e+01 1.111763e+01 3474
-4.359298e+01 -2.180330e+00 1.180958e+01 3484
1.348168e+01 -2.495816e+01 3.204111e+00 3487
1.770293e+01 -7.869604e+00 2.371645e+01 3488
1.881754e+01 2.485463e+00 6.656990e+00 3491
2.829745e+01 -2.879549e+00 1.837541e+01 3492
-1.831993e+01 1.656388e+00 2.777880e+01 3498
-1.474051e+01 2.463206e+01 8.206766e+00 3500
1.841348e+00 -1.186630e+01 1.193013e+01 3503
-3.939508e+00 1.203401e+01 1.920221e+01 3527
-4.714560e+01 -2.943951e+00 7.262811e+00 3532
2.781509e+01 6.729721e-01 7.558886e+00 3535
-4.189525e+01 -1.910968e+01 1.970380e+01 3538
-2.804928e+01 -5.994552e+00 1.873257e+01 3562
4.525072e+01 -1.819504e+01 1.428330e+01 3578
1.974685e+01 8.862866e+00 1.033606e+01 3593
4.516431e+01 3.463195e+00 1.705781e+01 3594
-3.456776e+01 -2.171757e+01 3.644334e+00 3604
-2.428598e+01 -1.617366e+01 1.696637e+01 3612
9.004044e+00 -1.243936e+01 2.659148e+01 3614
3.849249e+01 -7.096943e+00 1.412022e+01 3621
-4.136664e+01 -1.961963e+00 7.463640e+00 3639
-3.615423e+01 1.255453e+01 1.956747e+00 3652
-1.288135e+01 2.115192e+00 1.011948e+01 3659
-2.420982e+01 -1.555044e+01 1.678717e+01 3663
4.688265e+01 2.134439e+01 2.273749e+01 3668
1.283802e+01 2.277690e+01 2.067995e+01 3669
4.147134e+01 -1.331036e+00 2.603489e+00 3675
3.808172e+01 -5.904586e+00 9.844794e-01 3677
-8.497136e+00 -1.753895e+01 3.893341e+00 3679
-3.979932e+01 7.444737e+00 1.231379e+01 3682
-4.364862e+01 -1.289065e+01 1.693509e+01 3685
-3.525757e+01 1.139642e+00 2.995379e+00 3686
3.886762e+01 -1.302945e+01 7.924611e+00 3713
3.857995e+01 -2.668660e+00 2.602939e+01 3717
-3.069795e+01 1.197332e+01 2.270847e+01 3727
-3.085583e+01 -1.340213e+01 2.631533e+01 3729
-3.326754e+01 -2.444361e+01 9.553712e+00 3730
1.898314e+01 3.359279e-01 1.986204e+01 3733
-1.518515e+01 9.858821e-01 5.349336e+00 3734
1.781777e+01 1.912799e+01 2.871584e+01 3736
2.535430e+01 1.093406e+00 7.458334e+00 3741
4.189453e+00 1.037824e+01 2.644281e+01 3747
-1.335370e+01 -1.777369e+01 1.341819e+01 3758
-2.990361e+01 -9.065547e+00 2.693862e+01 3760
-1.154799e+01 -1.854568e+01 1.404152e+01 3762
3.050226e+01 1.846896e+01 2.772210e+01 3771
-3.908942e+01 -5.160371e+00 1.830625e+01 3780
3.998146e+01 2.784708e+00 8.386397e+00 3788
-1.563298e+01 -1.400363e+01 1.413780e+00 3798
1.617788e+01 -1.814621e+01 2.813729e+01 3800
3.916263e+00 -1.370838e+01 1.429485e+01 3801
2.414034e+01 1.817261e+01 1.880591e+01 3804
-2.472306e+01 7.876885e+00 1.414303e+01 3820
4.681170e+00 1.072229e+00 2.732782e+01 3824
3.426093e+01 -6.445274e+00 3.746165e+00 3836
3.370974e+00 -1.279561e+01 3.537020e+00 3844
-2.609497e+01 -5.577980e+00 2.068818e+01 3854
2.546832e+01 1.411130e+01 2.066607e+01 3856
3.464987e+01 1.825953e+01 1.873877e+00 3857
2.211049e+00 1.992367e+01 1.652864e+01 3858
2.651656e+01 1.394642e+01 1.506936e+01 3859
-2.209940e+01 -2.239455e+01 1.780717e+01 3865
4.128549e+01 1.957989e+01 1.735625e+01 3880
2.678448e+01 -7.181105e+00 8.505450e+00 3889
4.500906e+01 1.763032e+01 2.023141e+01 3894
9.059918e+00 -2.087721e+01 1.706886e+00 3910
-1.168585e+00 -1.996047e+01 2.004347e+01 3911
4.286832e+01 1.379627e+01 2.060217e+01 3919
3.623935e+01 -2.327916e+01 1.814427e+01 3929
3.861862e+01 -6.379660e+00 2.788322e+01 3930
-3.701281e+01 2.042868e+01 2.010531e+01 3935
3.085196e+01 -1.423037e+00 5.843061e+00 3953
1.144378e+01 7.966507e+00 2.475598e+01 3957
2.273146e+01 2.128452e+01 2.633632e+01 3963
-3.577263e-02 8.746752e+00 1.190135e+01 3969
2.020590e+01 2.112446e+01 9.859752e-01 3973
-3.703364e+01 -1.400266e+01 1.679920e+01 3984
-2.239673e+01 -9.725004e+00 2.307748e+01 3989
4.848261e+01 -6.833903e+00 2.213981e+01 4010
-3.495630e+01 1.393993e+00 6.328860e+00 4011
3.132399e+01 1.864168e+01 1.135623e+01 4016
3.948637e-01 2.552595e-01 1.721226e+01 4017
-1.983918e+01 -6.918076e+00 1.631001e+01 4020
3.130544e+01 -1.030501e+01 2.844760e+01 4034
-1.223172e+01 7.786551e+00 1.263074e+01 4036
-7.560427e+00 1.300661e+00 4.517902e+00 4037
-1.829523e+01 -5.090879e+00 1.108195e+01 4039
-1.300633e+01 4.641480e+00 2.638522e+01 4046
3.915959e+01 -1.925229e+01 2.839770e+01 4061
4.517067e+01 1.279122e+01 2.113804e+01 4064
1.405142e+01 9.391739e+00 2.563903e+01 4066
-4.336494e+01 -9.376613e+00 6.917144e+00 4079
2.156320e+01 1.331684e+01 6.891761e+00 4080
-4.061100e+01 8.535926e+00 1.069000e+01 4088
-2.957967e+01 -1.944181e+01 9.525194e+00 4104
3.621580e+01 -1.718631e+01 2.129891e+01 4106
-3.450035e+01 -2.428028e+01 5.117767e+00 4130
1.831560e+01 1.844423e+01 1.118656e+01 4144
-3.148489e+01 -3.334033e+00 1.967085e+01 4152
3.691683e+01 1.463623e+01 2.498560e+01 4161
4.287994e+01 1.762129e+01 1.963464e+01 4163
-1.974189e+01 -2.234360e+01 1.797659e+01 4165
3.530883e+01 -5.527397e+00 5.797701e+00 4170
-1.050872e+00 4.906322e+00 1.986259e+01 4172
-1.302408e+01 -3.180161e+00 1.648496e+01 4178
1.302493e+01 1.575728e+01 1.155973e+01 4183
-1.064687e+01 1.167872e+01 2.864819e+01 4184
1.794031e+01 -1.742621e+01 4.143805e+00 4194
-2.381726e+01 6.321338e+00 2.868933e+01 4201
1.189255e+01 -2.321403e+01 1.580771e+01 4209
-1.165797e+01 -2.417596e+01 2.833213e+00 4211
4.942736e+00 2.091990e+01 2.200009e+01 4239
1.411773e+01 1.570708e+01 3.187280e+00 4245
3.060612e+01 5.365050e+00 2.524811e+00 4248
1.832026e+01 -2.093311e+01 1.407315e+01 4252
-2.125762e+01 -3.454093e+00 2.690409e+01 4256
-1.859376e+01 1.597219e+01 6.451620e+00 4265
-6.136419e+00 2.116843e+01 1.955772e+01 4266
1.560439e+01 8.446115e+00 2.755823e+01 4268
3.491491e+01 -1.776508e+01 2.167227e+01 4302
4.330242e+01 1.661851e+01 1.598398e+01 4304
4.773720e+01 -1.079912e+01 3.305141e+00 4306
-4.838301e+01 -5.151059e-01 1.785268e+01 4308
-3.306949e+01 3.202070e+00 4.000779e+00 4314
2.838032e+01 -8.287495e+00 2.465692e+01 4318
2.707961e+01 1.002184e+01 1.837830e+01 4325
4.250316e+01 5.273460e+00 2.559975e+01 4327
-2.547232e+01 -1.553478e+01 2.776334e+01 4332
9.853182e+00 -1.274323e+01 7.824798e+00 4340
-1.549410e+01 5.219869e+00 2.134180e+01 4347
1.785866e+01 1.280789e+01 2.996910e+01 4348
-3.183334e+01 -3.734158e-01 4.785370e-01 4351
1.146140e+00 -7.242177e+00 1.204449e+01 4352
-3.142979e+01 1.122443e+01 2.910809e+01 4353
1.141685e+01 1.766764e+01 2.423445e+00 4359
-2.525212e+01 1.034599e+01 5.441952e+00 4370
3.808540e+01 -9.392225e+00 5.157266e+00 4378
-2.992944e+01 2.017602e+01 1.157833e+01 4389
1.114110e+01 -2.248751e+01 6.761645e+00 4395
-1.009963e+00 1.416615e+01 2.498290e+01 4396
-2.104762e+01 2.148631e+01 2.283621e+01 4402
-4.598863e+00 -2.583641e+00 1.629195e+01 4404
3.655338e+01 -9.712171e+00 3.178368e+00 4408
3.896596e+01 -2.191021e+01 2.232056e+01 4409
4.999550e+01 -4.943117e+00 2.224530e+01 4415
1.022828e+01 9.716559e+00 5.957629e-01 4423
-9.426419e+00 -5.847099e+00 2.627813e+01 4432
-3.151996e+01 1.756334e+01 1.653832e+01 4434
-4.120244e+01 2.334329e-01 1.119999e+01 4435
1.307654e+01 1.034056e+01 1.472328e+01 4448
-3.685247e+01 1.264941e+01 2.980288e+01 4453
-4.851665e+01 1.102362e+01 2.199631e+01 4462
-2.406081e+01 2.037392e+01 2.848669e+01 4470
-2.262465e+01 2.278930e+01 4.188291e+00 4480
1.993423e+01 1.914999e+01 1.393408e+01 4481
2.580741e+01 9.302350e-01 2.461881e+01 4485
-1.724237e+01 1.341000e+01 1.661223e+01 4488
8.306828e+00 -1.023780e+01 9.720166e+00 4511
4.718771e+01 -5.341436e+00 1.838065e+01 4512
1.682723e+01 -7.279165e-01 1.896463e+01 4515
2.536961e+01 2.680912e+00 1.061298e+01 4524
-1.312034e+01 -2.452520e+01 1.317730e+01 4534
-8.956166e+00 9.860267e+00 2.507482e+01 4537
-2.214543e+01 1.185846e+01 7.683892e+00 4538
-1.076187e+00 1.965084e+00 1.831002e+01 4541
-3.230885e+01 1.336295e+01 9.365397e+00 4544
4.411888e+01 -3.702383e+00 2.967761e+01 4553
-1.213715e+01 2.265476e+01 1.445841e+01 4578
1.119932e+01 1.239641e+01 1.914647e+01 4584
4.803672e+01 -6.527546e+00 1.187230e+01 4595
-4.670493e+01 6.208149e+00 1.148004e+01 4602
2.333337e+01 -1.203348e+01 8.457248e+00 4606
4.462302e+01 1.808936e+01 2.206751e+00 4614
3.960689e+01 5.829965e-02 4.851776e+00 4618
1.759412e+00 -3.657313e+00 6.428788e+00 4620
-3.253831e+01 -5.367524e+00 5.997310e-02 4621
3.440389e+01 -1.442924e+01 7.974867e+00 4623