Title = Snapshot #0
Variables=X Y Z PartID
Zone I= 6418, F=POINT
-9.504023e+00 2.393789e+01 7.231665e+00 0
5.721884e+00 -9.830928e+00 2.080781e+01 2
-9.494026e-01 1.190847e+01 2.816863e+01 8
2.707193e+00 1.708797e+01 2.065807e+01 12
-1.314909e+01 5.828771e+00 9.517325e+00 14
-3.850691e+01 2.006506e+01 1.087058e+00 17
-2.758805e+01 1.286869e+01 1.126277e+01 18
2.350594e+01 2.465691e+01 1.339819e+01 20
-4.366789e+01 -2.230947e+01 1.665809e+01 21
-2.865032e+01 -1.529631e+01 2.721105e+01 23
1.237860e+01 -1.245167e+01 1.361202e+01 31
-2.178249e+01 -1.423415e+00 5.527668e+00 41
2.377727e+00 8.116541e+00 1.128740e+01 42
-3.063622e+01 2.787128e+00 2.590211e+01 45
-2.447410e+00 -1.022834e+00 2.763196e+01 46
4.326226e+01 5.905341e+00 2.571793e+01 68
-3.292370e+01 -1.360163e+01 6.599890e+00 80
1.947219e+01 1.280443e+01 7.238371e+00 91
2.223355e+01 -1.141061e+01 2.266450e+01 95
2.359017e+01 1.565276e+01 2.723651e+01 98
-4.379218e+01 5.891104e+00 2.801755e+01 133
3.643318e+01 1.378366e+01 1.564731e+01 135
1.499171e+00 -8.667755e+00 1.552346e+01 137
2.614664e+01 9.503303e+00 1.382829e+01 150
-2.280309e+01 -7.500512e+00 1.147737e+01 158
-2.557911e+01 -2.199702e+01 1.781543e+01 166
2.344768e+01 -9.050623e-02 1.509958e+01 171
1.731713e+01 1.138271e+01 4.482807e+00 181
-1.560196e+01 1.000207e+01 1.352676e+01 214
-2.431938e+01 2.338178e+01 8.997340e+00 217
-4.784815e+01 -1.257165e+01 2.279538e+01 219
-1.977340e+00 1.662665e+00 8.929304e+00 233
1.598682e+01 -1.764110e+01 5.324432e+00 257
-4.813359e+01 -2.475480e+01 1.926796e+01 279
3.102955e+00 1.935180e+00 1.754248e+01 295
-4.868489e+01 -1.859772e+01 2.048438e+00 309
2.314079e+01 -2.449220e+01 6.912372e+00 311
3.175396e+01 -1.931672e+01 7.592285e+00 317
3.044282e-01 -6.437004e-01 2.279144e+01 319
4.436825e+00 -1.890288e+01 2.235855e+01 321
-4.867354e+01 1.492221e+01 1.399380e+01 325
-3.470388e+01 -1.048798e+01 7.295509e+00 340
3.434806e+01 2.383000e+01 2.662826e+01 352
3.682988e+01 1.578924e+01 1.635119e+01 363
4.579173e+01 -1.153227e+01 2.775588e+01 364
-2.066456e+01 2.348184e+01 3.641668e+00 373
3.332675e+01 -4.830082e-01 2.774971e+01 375
-3.211309e+01 1.332871e+01 4.275191e+00 396
1.012347e+01 9.833317e+00 1.300196e+01 412
-2.177351e+01 -1.934163e+01 2.660561e+01 425
1.084290e+00 1.374501e+01 4.031886e-01 426
-1.428366e+01 -2.615914e-02 7.381757e+00 427
1.367690e+01 1.082005e+01 2.478803e+01 441
8.867750e+00 1.789738e+01 2.607101e+01 443
4.768049e+01 -1.453737e+01 2.993362e+01 453
-1.221141e-03 1.553707e+01 2.388091e+01 454
1.792098e+01 1.136605e+01 2.708745e+01 457
-1.012856e+01 2.200901e+01 1.648883e+01 467
2.677872e+01 -1.409980e+01 9.610289e+00 477
3.391768e+01 4.240046e+00 6.218576e+00 504
-1.464501e+01 6.283233e+00 1.207438e+01 505
-6.908742e+00 -1.283720e+01 1.006122e+01 510
-1.425554e+01 1.126863e+01 5.319113e+00 521
-2.167221e+01 -1.853416e+01 7.362929e+00 524
-4.480600e+01 7.780879e+00 2.012647e+01 536
1.222451e+01 1.763501e+01 7.967679e-01 537
-1.895421e+01 -1.385286e+01 2.933872e+01 555
3.958014e+01 1.506373e+01 2.651028e+01 558
-2.031568e+01 3.890536e+00 2.992830e+01 559
3.341448e+01 1.870609e+01 1.626948e+01 578
-9.534080e+00 2.051076e+01 4.337421e-01 581
-3.003956e+01 1.252828e+01 1.549111e+01 588
3.752834e+01 2.225904e+01 1.420743e+01 591
-9.411084e+00 1.755306e+01 2.495710e+01 594
-1.280486e+01 -2.468669e+01 5.726200e-01 611
3.648020e+01 1.581905e+01 2.197407e+00 629
-1.697231e+01 2.126174e+01 2.624617e+01 634
-6.898634e+00 -1.494230e+01 5.800539e+00 636
-2.568402e+01 -7.548414e+00 2.502557e+01 640
6.370184e+00 1.718825e+01 2.665077e+01 642
4.449335e+01 1.456644e+01 1.248780e+01 643
2.064812e+01 1.684279e+01 2.900713e+00 650
4.449542e+01 -2.329356e+01 7.982250e+00 657
-1.802292e+01 1.759477e+00 2.113274e+01 661
-4.992259e+01 -1.074176e+01 5.910082e+00 667
4.086242e+00 -1.196243e+01 2.454733e+01 674
2.367119e+01 -1.152039e+01 3.451796e+00 675
1.303781e+00 -1.615732e+01 1.466820e+01 686
3.425238e+01 2.863210e+00 1.939362e+01 687
-3.382290e+01 -1.784826e+01 1.929352e+01 691
4.228734e+01 -9.018984e+00 2.726226e+01 695
-3.034790e+01 -5.800963e+00 1.000173e+01 697
-3.091885e+01 1.929364e+01 1.487136e+01 701
-3.201260e+01 -1.134361e+01 2.538027e+01 702
-2.572754e+01 1.688381e+01 2.759232e+01 704
4.196581e+01 -3.700011e+00 2.751874e+01 706
-2.708627e+01 -2.283261e+01 1.094171e+01 721
3.977894e+01 2.275865e+01 1.002120e+01 723
2.382543e+01 1.523074e+01 2.177741e+01 724
1.186150e+01 1.260905e+01 1.096264e+01 729
-1.102127e+01 -8.088617e+00 2.483069e+01 731
-2.810133e+01 1.523870e+01 1.903584e+01 743
2.425353e+01 1.000067e+01 2.894734e+01 747
-9.774845e+00 -3.580715e+00 3.203749e+00 749
2.689128e+01 -1.070976e+01 9.719764e+00 752
1.321739e+01 1.209441e+01 2.598858e+01 754
-3.310576e+01 1.974596e+00 2.234070e+01 763
3.605011e+01 2.439552e+01 4.516202e+00 764
-2.232686e+00 -1.329335e+01 3.008132e+00 776
-4.716679e+01 -2.383770e+01 3.849493e+00 782
2.983330e+01 -7.719763e+00 1.200600e+01 783
-2.370205e+01 9.546266e+00 6.428026e+00 791
-3.434758e+01 1.744054e+01 2.629237e+01 793
-4.423700e+00 1.771648e+01 2.371619e+01 797
3.533209e+00 -3.995706e+00 2.313075e+01 814
3.896885e+00 -1.356254e+01 2.754264e+01 823
2.788332e+01 2.302888e+00 1.632127e+01 841
-4.040037e+00 -2.465182e+01 1.161830e+01 847
2.072955e+01 1.119826e+00 2.457315e+01 852
-2.320127e+00 -6.483782e+00 3.123148e+00 853
7.978484e+00 4.816938e+00 1.048324e+01 860
1.138501e+01 -7.059241e+00 3.791520e+00 862
1.592314e+01 1.336683e+01 9.884706e-02 865
-7.168130e+00 1.225722e+01 1.477167e+01 871
-1.931924e+01 -1.940197e+01 1.891459e+01 879
3.654086e+00 -1.492208e+01 2.190261e+01 890
-4.265127e+01 2.192036e+01 3.961790e+00 891
-4.190609e+01 2.019829e+01 2.949927e+01 892
-3.949328e+01 1.122348e+01 1.513108e+01 893
-9.742641e+00 1.701859e+00 1.436795e+01 899
1.248932e+01 -2.049482e+01 1.769130e+01 901
3.626560e+01 5.083436e+00 1.381355e+00 903
-3.324594e+01 7.289265e+00 1.403806e+01 918
-4.333830e+01 -3.665267e+00 1.797610e+01 928
-3.116394e+00 2.200413e+01 2.772025e+01 938
-1.829786e+01 2.242858e+01 2.528749e+01 939
-3.398746e+01 -1.130204e+01 9.296260e+00 961
-1.525262e+01 -7.442319e+00 2.934857e+01 971
1.160198e+01 -2.245465e+01 1.645268e+01 974
1.038346e+01 -2.272237e-01 2.597010e+01 980
-9.195949e+00 -1.335289e+01 2.013491e+00 984
1.730425e+01 2.010493e+01 2.774669e+01 994
-3.680545e+01 -8.232975e+00 5.835826e+00 1000
-1.369053e+00 7.402715e+00 2.635864e+01 1005
-4.197040e+01 1.070263e+01 1.884566e+01 1010
-4.541349e+01 5.528431e+00 2.098286e+01 1019
-5.629291e+00 -1.495591e+01 1.034539e+00 1024
-3.277887e+01 -1.328053e+01 2.346358e+01 1033
-2.919278e+00 2.476170e+01 1.733146e+01 1042
3.847533e+01 8.045376e+00 2.186513e+01 1046
4.125965e+00 2.413835e+01 8.270872e+00 1054
-4.887610e+00 -6.667639e+00 2.344179e+01 1056
-4.209329e+01 2.297393e+01 3.770870e+00 1058
1.552531e+01 2.411257e+01 3.675833e+00 1091
1.892154e+01 2.023971e+01 4.753026e+00 1096
-1.934725e+01 -1.126605e+01 2.784887e+01 1100
4.313277e+01 -2.282169e+01 2.021481e+01 1104
-1.527897e+00 1.270774e+01 8.003992e+00 1119
4.720987e+01 7.339044e+00 7.299809e+00 1122
1.601170e+01 1.695025e+01 6.321099e+00 1133
-3.279023e+01 1.983293e+01 1.401406e+01 1137
1.383715e+01 1.061922e+01 2.480017e+00 1140
-3.627128e+01 -2.056868e+01 1.191769e+01 1147
1.200124e+01 1.434261e+01 1.492017e+01 1168
1.928637e+01 9.526770e+00 6.363051e+00 1183
-2.754242e+01 -1.842423e+01 1.195029e+01 1196
3.666826e+01 6.539240e+00 2.150900e+01 1210
-8.889858e-01 1.922600e+01 3.811553e+00 1226
-2.274205e+01 1.611344e+01 2.358958e+01 1230
-4.769000e+01 -1.646725e+01 1.193580e+00 1232
2.112264e+01 8.027686e-01 5.127880e+00 1238
4.210144e+01 -4.225463e+00 1.215845e+01 1242
-1.144085e+01 -8.367470e+00 2.987448e+00 1250
4.538238e+01 -1.614177e+01 1.267350e+01 1252
-8.546684e+00 6.442527e+00 2.921684e+01 1256
-6.908088e+00 1.695270e+01 2.311101e+00 1260
2.819010e+01 5.687275e+00 2.427041e+01 1273
-3.256860e+01 -5.023172e+00 2.327822e+00 1278
2.186406e+01 -1.005587e+01 1.517702e+00 1284
-2.451240e+01 3.103122e+00 2.690489e+01 1286
2.814759e+01 9.872382e+00 7.934810e-01 1292
4.594837e+01 2.323566e+01 7.256035e+00 1299
-8.692855e+00 -7.093367e-01 2.557670e+01 1312
-4.354336e+01 2.038689e+00 2.851484e+01 1315
4.851853e+01 1.379778e+01 1.976066e+01 1322
-9.012006e+00 -5.969034e+00 1.785975e+01 1323
-3.173933e+01 -2.469736e+01 2.287163e+01 1326
-3.399765e+01 -2.390634e+01 2.166438e+01 1332
2.126402e+01 -1.925911e+01 2.533351e+01 1333
-4.943750e+01 -4.362924e+00 1.777511e+01 1334
1.713516e+01 -1.998453e+01 1.337542e+01 1337
-2.404729e+01 7.662437e+00 4.782134e+00 1340
-1.163053e+01 -1.289490e+01 2.939456e+01 1342
-6.106635e+00 6.123331e+00 1.663591e+01 1346
-6.440653e+00 -1.924248e+01 2.878131e+01 1347
1.798843e+01 1.479954e+01 1.688604e+01 1350
4.828212e+00 -6.344277e+00 2.441631e+01 1351
2.914188e+01 1.303328e+00 1.897740e+01 1352
-1.243876e+01 -4.466736e+00 8.720633e+00 1356
4.287533e+01 2.024687e+01 2.883791e+01 1361
-6.939770e-01 -7.292736e+00 1.357756e+01 1362
-4.977335e+01 5.166552e+00 1.427860e+01 1374
2.830015e+01 8.355173e+00 1.390993e+01 1375
2.491493e+01 1.086283e+01 1.540103e+01 1382
1.267165e+01 -3.379498e+00 2.144077e+01 1385
-4.410732e+00 -2.205617e+01 1.439727e+01 1395
4.689842e+01 2.275706e+01 1.024316e+01 1396
1.113202e+01 1.198762e+01 1.373241e+01 1415
6.527491e+00 -1.740525e+01 2.103562e+01 1420
-1.372235e+01 1.986311e+01 6.568586e+00 1421
1.394352e+01 -1.696716e+01 2.148010e+01 1423
4.645917e+01 -1.816910e+01 1.811363e+01 1428
1.381902e+01 -1.129526e+01 7.887108e+00 1442
4.430007e+01 -3.795688e+00 8.644844e-01 1446
3.059664e+00 -1.425255e+00 1.617287e+01 1451
4.928340e+00 5.632075e+00 1.177259e+01 1455
3.232581e+01 -9.207155e+00 1.823822e+00 1460
5.879981e+00 -1.478765e+01 1.788789e+01 1470
-2.722891e+01 -3.438068e-01 6.198418e+00 1471
-3.785336e+01 -7.882944e+00 1.987703e+01 1472
3.354966e+01 -1.042963e+01 1.268958e+01 1474
-1.017447e+01 -1.244646e+01 1.372990e+01 1478
-4.836753e+01 1.636548e+01 1.805202e+01 1479
-1.976697e+01 -1.280138e+01 1.362463e+01 1493
2.129207e+01 -1.737741e+01 1.005925e+01 1496
-8.684414e+00 -7.404263e+00 2.913780e+01 1500
-4.489196e+01 1.238737e+01 1.122279e+01 1502
1.297234e+01 1.695485e+01 1.697488e+01 1514
-7.750587e+00 -1.063131e+01 2.572638e+01 1516
3.629422e+01 -3.006254e+00 6.884344e-02 1517
-1.037833e+01 1.923022e+01 1.565772e+01 1518
-1.889210e+01 -1.946137e+01 7.960572e+00 1523
3.765063e+01 -2.016309e+01 2.643599e+01 1531
-1.068872e+01 1.889886e+01 3.439961e+00 1546
2.754688e+01 -2.212777e+00 8.436317e+00 1551
-8.503477e-01 1.740583e+01 2.558024e+01 1576
-4.148494e+01 1.393056e+01 1.835184e+01 1580
-4.630433e+01 1.822370e+01 1.606558e+01 1582
3.945045e+01 -1.583056e+01 1.907317e+01 1584
-1.235268e+01 -1.385313e+01 1.782805e+01 1589
-3.942246e+01 2.060934e+01 2.639481e+01 1591
-1.287913e+01 1.194514e+01 2.614231e+01 1598
8.241782e+00 1.987807e+01 1.619990e+01 1606
-1.179377e+00 -8.196359e+00 2.095257e+01 1615
1.611642e+01 -1.366537e+01 4.342066e+00 1617
2.577857e+01 -6.236809e+00 1.061924e+01 1620
-1.270150e+01 1.134393e+01 2.598699e+00 1623
-4.322358e+01 -2.234466e+01 7.933688e+00 1634
1.501957e+01 2.498156e+01 2.301877e+01 1642
-1.226198e+01 -4.501228e+00 1.302853e+01 1655
-4.622106e+01 1.491367e+01 2.303860e+00 1667
1.643714e+00 -1.988429e+01 1.931971e+01 1669
2.902793e+00 -8.611967e+00 1.515029e+01 1687
-4.778196e+01 2.299154e+01 2.093051e+01 1688
4.691457e+01 -1.105008e+01 1.042673e+01 1694
-4.497296e+01 -1.057009e+01 7.580880e+00 1701
1.747603e+01 1.846018e+01 2.250043e+01 1709
3.984206e+01 -5.170551e+00 2.542075e+01 1727
2.002692e+01 9.847272e+00 2.126466e+01 1735
-6.442325e-01 6.214869e+00 8.455350e+00 1743
1.396342e+01 3.196284e+00 1.930528e+01 1744
-3.781622e+01 -9.939171e+00 2.929092e+01 1748
2.792581e+01 6.860988e+00 4.058170e+00 1752
3.926032e+01 1.418724e+01 1.332947e+01 1754
-4.621721e+01 2.113585e+01 1.577499e+01 1756
2.637136e+00 6.986493e+00 2.020804e+01 1757
-4.113861e+01 1.791469e+01 5.274964e-02 1761
1.936767e+01 -3.999055e+00 9.168235e-01 1763
-4.882739e+01 -4.805956e+00 2.095012e+01 1773
-1.170630e+01 -2.094194e+01 1.557869e+01 1777
3.159168e+01 -1.284289e+01 7.180746e-01 1779
3.803110e+01 -1.138968e+01 2.583784e+01 1782
1.341978e+01 1.423029e+01 1.036101e+01 1784
-4.164024e+01 -7.997338e+00 1.365392e+01 1794
4.610736e+01 2.475249e+01 1.742795e+01 1798
-4.372430e+01 3.546062e+00 2.822677e+01 1801
-4.280496e+01 -2.044484e+01 1.668021e+01 1810
4.346645e+01 -2.443769e+01 1.179678e+01 1819
9.830815e+00 -2.441980e+01 1.813860e+01 1833
3.121984e+01 -6.525350e+00 2.425390e+01 1862
-3.289439e+01 2.871742e+00 1.459686e+01 1874
4.684486e+00 1.510156e+01 3.381846e+00 1876
2.121715e+01 1.820292e+01 1.767477e+01 1888
4.315518e+01 1.479165e+01 2.646295e+00 1895
-2.152180e+01 1.262421e+00 1.068262e+01 1906
3.869465e+01 -1.232957e+01 2.410057e+01 1908
2.118321e+01 -1.536994e+00 4.966048e+00 1912
4.533924e+01 -2.467655e+01 2.245144e+01 1918
-3.735213e+01 1.495080e+01 1.266253e+01 1920
5.788378e+00 1.837940e+01 1.630839e+01 1931
-1.266028e+01 2.409839e+01 6.785692e+00 1953
3.629701e+01 1.035833e+01 2.656941e+01 1959
-7.107714e+00 6.582507e+00 1.743647e+01 1968
-2.529265e+01 2.542925e+00 1.875510e+01 1972
-3.120862e+01 2.119330e+01 3.604292e+00 1973
3.932499e+01 2.434245e+00 1.464699e+01 1984
-4.471362e-01 -1.034156e+01 1.553028e+01 1987
4.417336e+01 -2.338069e+01 7.983674e+00 1988
1.357354e+01 4.215191e+00 2.824383e+01 1990
3.890760e+01 1.362491e+01 2.029678e+01 1996
1.377608e+01 1.353786e+01 7.613421e+00 1997
-3.421733e+01 -3.267044e+00 2.392812e+01 2002
7.108177e+00 3.379214e+00 2.397190e+01 2009
2.357183e+00 2.405765e+01 1.889549e+01 2029
2.710161e+01 -3.823421e+00 2.870003e+01 2042
1.319313e+01 1.230959e+01 1.377495e+01 2044
-1.366045e+01 -1.593212e+01 2.599069e+01 2054
4.104808e+00 9.377305e+00 8.892136e+00 2057
-2.227889e+01 7.290041e+00 2.211641e+01 2063
4.457844e+01 1.928772e+01 7.473508e+00 2080
-6.332635e+00 1.069328e+01 7.564565e+00 2091
-3.482028e+01 -8.981692e+00 1.974338e+01 2093
2.553077e+01 7.603988e+00 2.444358e+00 2094
4.825862e+01 4.013544e+00 2.934613e+00 2108
-4.588185e+01 1.937440e+01 2.799554e+01 2109
-1.709058e+01 -7.136348e+00 3.576855e+00 2118
4.133502e+01 9.652504e+00 4.014543e+00 2128
9.094657e+00 -1.512942e+01 1.763412e+01 2129
-8.129551e+00 2.013861e+01 2.222483e+01 2137
6.463086e+00 4.559227e+00 3.508569e+00 2142
3.640223e+01 1.133193e+01 1.471016e+01 2145
3.142315e+01 -3.136358e+00 2.940410e+01 2151
-1.777593e+01 -1.736056e+01 9.878042e+00 2153
2.804448e+01 1.596302e+01 1.407899e+01 2154
-2.586905e+01 1.765230e+01 2.299332e+01 2159
5.250037e+00 -1.719660e+00 1.045511e+01 2166
-4.474888e-01 -1.656787e+01 2.810489e+01 2177
4.439412e+00 2.438119e+01 2.590003e+00 2200
-1.688430e+01 -8.684846e+00 9.165745e+00 2210
-4.553087e+01 8.544945e+00 1.927853e+01 2217
9.242354e+00 -6.854787e+00 2.425934e+01 2227
3.984933e+01 4.033805e+00 2.895992e+01 2228
-2.508438e+00 -1.187107e+01 2.242855e+01 2233
2.957721e+01 2.836133e+00 4.664304e+00 2234
3.188605e+01 -1.965628e+01 2.290011e+01 2238
-4.129297e+01 1.037539e+01 2.036070e+01 2240
-4.223741e+01 -1.272553e+01 1.693384e+01 2244
-1.647442e+01 1.688579e+01 7.967749e+00 2252
3.048811e+01 -1.234484e-01 7.103951e+00 2270
-4.763854e+01 2.480302e+01 1.377524e+01 2282
1.045528e+01 2.183169e+01 2.711083e+01 2287
4.992122e+01 1.745957e+01 1.663242e+01 2290
5.181885e+00 6.419476e+00 1.286565e+01 2292
-3.978644e+01 1.654581e+01 3.199539e+00 2297
-2.713818e+01 -7.642748e+00 2.923077e+01 2307
2.150604e+01 9.545633e+00 8.431364e+00 2314
2.634535e+01 1.036589e+01 2.009682e+01 2334
4.689396e+01 -1.138712e+01 1.908464e+01 2347
5.565781e+00 6.372615e+00 2.677312e+01 2357
-2.004500e+01 2.458026e+01 2.822589e+01 2361
-2.967836e+01 9.772815e+00 2.731603e+01 2372
-2.784133e+01 -1.138286e+01 2.590510e+00 2386
4.912568e+01 -1.136856e+01 2.770939e+01 2395
-3.023478e+00 2.165462e+01 2.254772e+01 2399
3.153022e+01 -8.392956e+00 3.450857e+00 2408
-5.292874e+00 -9.767598e+00 2.896606e+01 2424
3.710459e+00 2.344464e+01 1.864915e+00 2425
3.817665e+01 -1.931521e+01 1.809280e+01 2426
1.839238e+01 -4.014082e+00 2.910683e+01 2428
-3.997951e+01 -9.095483e+00 1.703855e+01 2442
1.480250e+01 2.221030e+01 2.526896e+01 2451
-1.759554e+01 -1.616359e+01 2.452795e+01 2452
-1.883738e+01 -1.843712e+01 2.213419e+01 2454
-1.135687e+01 2.395796e+01 2.845489e+00 2461
3.705710e+01 -1.813586e+01 2.612312e+01 2494
-3.468798e+01 -3.895488e+00 2.123457e+01 2520
4.581790e+01 -1.449904e+01 1.287627e+00 2527
-3.171407e+01 2.113148e+00 2.971257e+00 2528
1.564709e+01 -1.864915e+01 2.605816e+01 2542
-3.747011e+01 1.106762e+01 1.791586e+01 2544
-2.203188e+01 1.238858e+01 2.123308e+01 2556
-2.140062e+01 -3.056443e+00 2.790904e+01 2566
-9.333786e+00 -1.150968e+01 4.014612e+00 2571
4.913465e+01 2.165513e+01 2.963716e+00 2580
-4.692294e+01 -2.491732e+01 1.048870e+01 2584
-1.441004e+01 9.185764e+00 1.496606e+01 2586
1.665134e+01 -9.295342e+00 2.375424e+01 2587
-4.519270e+01 2.247633e+01 2.874217e+01 2594
3.766294e+01 -4.445266e+00 1.437173e+01 2595
-8.791747e+00 1.566802e+01 6.568321e+00 2597
3.491359e+00 1.689223e+01 1.239125e+01 2598
-1.607644e+01 -2.394232e+01 3.402172e+00 2607
-2.826174e+01 -2.153323e+01 2.550955e+01 2633
4.429202e+01 1.195960e+01 2.134771e+01 2634
1.883935e+01 2.469831e+01 2.625978e+01 2637
1.675568e+01 2.224065e+01 1.090161e+01 2640
1.227563e+01 -1.358226e+01 1.072313e+01 2644
-2.062685e+01 -8.418998e+00 5.126339e+00 2646
-1.315271e+01 -1.632120e+01 2.630258e+01 2651
-4.723530e+01 3.725957e+00 1.476730e+01 2670
-2.798047e+01 2.397424e+01 4.163128e+00 2691
-1.050730e+01 8.259210e+00 3.176760e+00 2704
-2.183015e+01 -1.989913e+01 2.024677e+01 2710
3.617614e+01 -5.261149e+00 2.644954e+01 2713
4.261302e+01 -1.726488e+01 2.122355e+01 2715
2.110703e+01 -7.160341e-01 6.429782e-01 2717
2.576457e+01 1.568240e+01 2.363439e+01 2731
3.539846e+01 -1.386779e+01 2.729558e+01 2734
2.815192e+01 -1.651299e+01 2.728793e-02 2739
-3.043712e+01 5.802281e+00 2.044525e+01 2752
-4.896383e+01 7.578947e+00 1.361754e+01 2760
-2.672978e+01 -2.184938e+01 2.720867e+01 2765
3.953865e+01 1.063778e+01 2.927258e+00 2769
3.282078e+01 9.363364e+00 2.584538e+01 2771
-3.446132e+01 -1.959644e+01 2.603838e+01 2772
1.710697e+01 -1.992073e+01 4.050181e+00 2782
-2.322921e+00 -8.417914e+00 2.580142e+01 2787
-2.846981e+01 5.650339e+00 3.211746e+00 2795
1.148587e+01 -1.054582e+01 2.651470e+01 2800
-1.017078e+01 -2.107147e+01 6.557543e+00 2814
1.408483e+00 1.628753e+01 2.939602e+01 2816
4.464848e+01 1.416112e+01 2.093584e+01 2819
-4.513986e+01 2.221199e+01 3.862054e+00 2836
-3.651339e+01 -7.669037e-01 8.424087e+00 2848
-2.789176e+01 -2.345551e+01 1.661905e+01 2852
4.205257e+01 1.808101e+01 2.251238e+01 2862
2.369584e+01 -1.781618e+01 2.987023e+01 2865
-4.699463e+01 8.319374e-01 1.566485e+01 2866
-1.894987e+01 1.082425e+01 7.238890e+00 2868
-2.276160e+01 -2.349514e+01 4.949183e+00 2877
1.337644e+01 -1.552701e-01 5.727839e+00 2879
3.708038e+01 2.086446e+01 2.097856e+01 2883
-2.934987e+00 1.733629e+01 6.698786e+00 2906
-2.074279e+01 1.132377e+01 2.682433e+01 2907
3.006636e+01 1.650703e+01 2.027761e+00 2923
-3.841935e+01 -2.087037e+01 1.820480e+01 2926
-3.231463e+01 -2.253585e+00 1.775571e+01 2940
-3.547466e+01 1.575341e+01 1.545258e+01 2943
3.192524e+01 -1.468559e+01 1.956035e+01 2952
2.002602e+01 -5.564849e+00 1.510445e+00 2956
-2.353126e+00 -1.965156e+01 1.111114e+01 2970
1.788306e+01 -1.229109e+01 2.892425e+01 2982
8.384187e+00 8.745184e+00 1.755884e+01 2990
-4.129839e+01 1.364605e+01 1.164798e+01 2995
-2.427931e+01 4.847359e+00 1.350315e+01 2998
-3.293030e+01 2.460209e+01 7.510314e+00 3005
-2.360156e+01 1.727431e+00 1.240573e+00 3008
-3.719018e+00 5.501525e+00 2.708075e+01 3025
-4.577487e+01 5.023910e+00 2.115892e+01 3028
1.162225e+01 2.136291e+01 2.139050e+01 3059
-4.909357e+01 -1.907269e+01 2.269040e+01 3067
-3.563608e+00 -9.482529e+00 1.869776e+01 3081
1.556719e+01 -7.275807e-02 1.848404e+01 3083
-2.767032e+01 -1.295620e+01 1.488682e+01 3089
4.124874e+01 -1.403313e+01 1.839700e+01 3094
4.817264e+01 1.339352e+01 2.600604e+01 3096
-4.368516e+01 -1.703147e+01 1.286385e+01 3103
2.948858e+00 1.204736e+01 1.074238e+01 3104
-2.478064e+00 9.204153e+00 2.939473e+01 3110
1.174239e+01 1.634808e+01 6.125776e+00 3123
-4.753597e+01 -2.302316e+00 2.809565e+01 3153
2.371314e+01 -4.432866e+00 5.479991e-01 3156
4.000667e+01 -7.210769e+00 3.998807e+00 3157
-4.607750e+01 -1.412038e+01 1.250949e+00 3198
4.706747e+00 -7.495981e+00 2.349007e+01 3200
3.363366e+01 2.276518e+01 2.534747e+01 3218
-2.962955e+01 1.831425e+01 1.144643e+00 3223
-1.826963e+01 3.937982e+00 1.257569e+01 3244
2.378545e+01 4.581192e+00 1.821795e+01 3248
1.817823e+01 -1.468505e+01 2.529800e+01 3254
4.284325e+01 5.250933e+00 1.157344e+01 3257
4.162286e+01 -4.802930e+00 1.100605e+01 3259
-2.585529e+00 1.897180e+01 2.369615e+01 3262
4.261943e+01 -7.239600e+00 1.804887e+01 3263
2.633351e+01 -1.687691e+01 3.270012e+00 3273
-9.367783e+00 -2.129908e+01 2.076166e+01 3285
3.542218e+01 -1.537052e+01 3.156782e+00 3308
2.155214e+01 1.470167e+01 5.796123e+00 3317
-4.427573e+01 -7.641817e+00 6.381773e-01 3321
1.843608e+01 7.435812e+00 2.381898e+00 3333
2.561135e+01 1.373102e+01 1.445537e+01 3347
1.639972e+01 -8.989499e+00 2.556028e+00 3348
-2.579389e+01 -2.045812e+01 2.227414e+00 3353
-2.849725e+01 -1.968968e+01 2.774736e+01 3357
3.130799e+01 -7.665343e+00 9.896495e+00 3366
-2.676253e+01 1.173282e+01 1.355350e+01 3375
4.473090e+01 9.032477e+00 2.479739e+01 3383
3.637139e+01 -5.437989e+00 2.055563e+00 3398
-4.627470e+01 1.547763e+01 3.972176e+00 3402
-2.904017e+01 1.817895e+01 2.895424e+00 3431
-6.639015e+00 -8.624691e+00 1.995403e+01 3433
-2.391584e+01 2.444061e+01 1.266736e+01 3442
-4.441583e+01 -2.446022e+01 1.719209e+01 3447
2.426397e+01 2.006421e+01 2.519597e+01 3456
-3.586448e+01 -5.930435e+00 2.340074e+01 3460
-4.861511e+01 1.965050e+01 1.969431e+01 3461
3.478864e+01 -2.494920e+01 1.931367e+01 3463
-9.199802e+00 7.511233e+00 2.932251e+01 3464
4.867499e+01 -1.947469e+01 1.115257e+01 3474
-4.510956e+01 -2.293202e+00 1.133047e+01 3484
1.628830e+01 -7.991513e+00 2.392439e+01 3488
1.779036e+01 2.598291e+00 6.431789e+00 3491
2.702166e+01 -2.932900e+00 1.840494e+01 3492
-1.978204e+01 1.437890e+00 2.792436e+01 3498
-1.625846e+01 2.428825e+01 7.990977e+00 3500
8.901538e-01 -1.162685e+01 1.179444e+01 3503
-5.175332e+00 1.186331e+01 1.881052e+01 3527
-4.848922e+01 -2.567041e+00 6.933405e+00 3532
2.703194e+01 8.541651e-01 7.633744e+00 3535
-4.319600e+01 -1.936003e+01 1.940300e+01 3538
-2.895184e+01 -5.917699e+00 1.912189e+01 3562
4.464030e+01 -1.835974e+01 1.423348e+01 3578
1.897265e+01 8.900020e+00 1.039498e+01 3593
4.382527e+01 3.236888e+00 1.690341e+01 3594
-3.538786e+01 -2.161713e+01 3.317838e+00 3604
-2.462330e+01 -1.596784e+01 1.788075e+01 3612
7.654877e+00 -1.259246e+01 2.708660e+01 3614
3.781003e+01 -7.305841e+00 1.408319e+01 3621
-4.229404e+01 -1.984538e+00 7.109336e+00 3639
-3.721038e+01 1.266398e+01 2.017509e+00 3652
-1.406395e+01 2.474098e+00 9.795287e+00 3659
-2.566812e+01 -1.580941e+01 1.808089e+01 3663
4.492886e+01 2.094240e+01 2.270329e+01 3668
1.150298e+01 2.300251e+01 2.100314e+01 3669
4.063852e+01 -1.207542e+00 2.797395e+00 3675
3.719608e+01 -6.103427e+00 8.912260e-01 3677
-9.842631e+00 -1.765647e+01 3.889324e+00 3679
-4.118587e+01 7.517444e+00 1.154418e+01 3682
-4.467486e+01 -1.267609e+01 1.624350e+01 3685
-3.579118e+01 1.273192e+00 3.226968e+00 3686
3.813712e+01 -1.311540e+01 7.825094e+00 3713
3.723851e+01 -2.534714e+00 2.595025e+01 3717
-3.317683e+01 1.212587e+01 2.237399e+01 3727
-3.277411e+01 -1.373250e+01 2.570809e+01 3729
-3.438977e+01 -2.447744e+01 9.517650e+00 3730
1.819894e+01 5.720764e-01 1.981057e+01 3733
-1.678746e+01 2.045583e-01 5.262949e+00 3734
1.628027e+01 1.960231e+01 2.855324e+01 3736
2.468482e+01 1.208491e+00 7.491031e+00 3741
2.606824e+00 1.008080e+01 2.614102e+01 3747
-1.442367e+01 -1.856701e+01 1.327669e+01 3758
-3.184955e+01 -9.192030e+00 2.688945e+01 3760
-1.300935e+01 -1.875135e+01 1.395314e+01 3762
2.891289e+01 1.860383e+01 2.808403e+01 3771
-4.025216e+01 -5.340791e+00 1.720755e+01 3780
3.913557e+01 2.744348e+00 8.387533e+00 3788
-1.676637e+01 -1.403523e+01 1.362315e+00 3798
1.456563e+01 -1.833902e+01 2.825226e+01 3800
3.136117e+00 -1.351665e+01 1.422150e+01 3801
2.302927e+01 1.783058e+01 1.909660e+01 3804
-2.516116e+01 7.624379e+00 1.481069e+01 3820
3.914868e+00 1.211022e+00 2.668997e+01 3824
3.348031e+01 -6.433199e+00 3.862882e+00 3836
2.231777e+00 -1.287043e+01 3.419019e+00 3844
-2.723210e+01 -5.803980e+00 2.115508e+01 3854
2.395218e+01 1.398879e+01 2.098271e+01 3856
3.391618e+01 1.795891e+01 1.939079e+00 3857
1.394920e+00 1.965019e+01 1.638200e+01 3858
2.509986e+01 1.378696e+01 1.508993e+01 3859
-2.328851e+01 -2.206021e+01 1.831326e+01 3865
4.019832e+01 1.989614e+01 1.711447e+01 3880
2.579590e+01 -7.342017e+00 8.525803e+00 3889
4.339431e+01 1.769093e+01 1.970706e+01 3894
7.873887e+00 -2.101987e+01 1.676226e+00 3910
-2.192649e+00 -1.953806e+01 1.957258e+01 3911
4.133179e+01 1.398967e+01 2.018885e+01 3919
3.483179e+01 -2.355713e+01 1.796295e+01 3929
3.704068e+01 -6.584589e+00 2.801627e+01 3930
-3.788994e+01 2.002467e+01 1.966303e+01 3935
3.013165e+01 -1.171533e+00 6.025971e+00 3953
1.050969e+01 8.629563e+00 2.467898e+01 3957
2.123805e+01 2.160694e+01 2.626379e+01 3963
-8.191916e-01 8.904281e+00 1.143801e+01 3969
1.901651e+01 2.154737e+01 1.107426e+00 3973
-3.713835e+01 -1.394693e+01 1.590401e+01 3984
-2.386607e+01 -9.942863e+00 2.365562e+01 3989
4.711287e+01 -6.695899e+00 2.231534e+01 4010
-3.536372e+01 1.686811e+00 6.568421e+00 4011
3.014375e+01 1.870572e+01 1.120991e+01 4016
-1.041761e+00 5.750206e-01 1.679138e+01 4017
-2.067478e+01 -6.867936e+00 1.703450e+01 4020
3.014050e+01 -1.056790e+01 2.825304e+01 4034
-1.361357e+01 7.766315e+00 1.199431e+01 4036
-8.876854e+00 1.680355e+00 4.637174e+00 4037
-1.917337e+01 -4.577226e+00 1.170150e+01 4039
-1.468335e+01 4.727808e+00 2.619458e+01 4046
3.765663e+01 -1.960910e+01 2.821214e+01 4061
4.383784e+01 1.298445e+01 2.063310e+01 4064
1.287672e+01 9.426489e+00 2.570392e+01 4066
-4.425427e+01 -9.529457e+00 6.646474e+00 4079
2.060861e+01 1.317938e+01 6.808727e+00 4080
-4.177616e+01 8.756635e+00 1.001634e+01 4088
-3.007801e+01 -1.869893e+01 9.343389e+00 4104
3.494891e+01 -1.747106e+01 2.098319e+01 4106
-3.554623e+01 -2.385934e+01 4.887014e+00 4130
1.716653e+01 1.837901e+01 1.102424e+01 4144
-3.319263e+01 -3.104973e+00 2.032335e+01 4152
3.536435e+01 1.465097e+01 2.523264e+01 4161
4.141476e+01 1.766886e+01 1.925002e+01 4163
-2.095973e+01 -2.191973e+01 1.854566e+01 4165
3.451896e+01 -5.591052e+00 5.862498e+00 4170
-2.671586e+00 5.178391e+00 1.972873e+01 4172
-1.428733e+01 -3.269462e+00 1.681035e+01 4178
1.211825e+01 1.572345e+01 1.139366e+01 4183
-1.242724e+01 1.179715e+01 2.858706e+01 4184
1.688006e+01 -1.783698e+01 4.571823e+00 4194
-2.544507e+01 6.107288e+00 2.900397e+01 4201
1.073045e+01 -2.316193e+01 1.622304e+01 4209
-1.284156e+01 -2.425736e+01 2.525809e+00 4211
3.545819e+00 2.042417e+01 2.162247e+01 4239
1.315158e+01 1.559342e+01 3.050383e+00 4245
2.961646e+01 5.266930e+00 2.695907e+00 4248
1.741808e+01 -2.126521e+01 1.399528e+01 4252
-2.273430e+01 -3.587001e+00 2.726667e+01 4256
-2.011663e+01 1.599391e+01 5.698016e+00 4265
-7.263570e+00 2.103360e+01 1.888479e+01 4266
1.446522e+01 8.337787e+00 2.794981e+01 4268
3.372523e+01 -1.789354e+01 2.129221e+01 4302
4.233097e+01 1.694676e+01 1.574213e+01 4304
4.664392e+01 -1.077653e+01 3.372367e+00 4306
-3.371389e+01 3.391121e+00 4.230381e+00 4314
2.691927e+01 -8.383722e+00 2.470268e+01 4318
2.559300e+01 1.024554e+01 1.874251e+01 4325
4.055934e+01 5.570437e+00 2.594518e+01 4327
-2.753919e+01 -1.566434e+01 2.821664e+01 4332
8.719136e+00 -1.286523e+01 7.680067e+00 4340
-1.633543e+01 5.557899e+00 2.092179e+01 4347
-3.242181e+01 -4.348522e-01 5.407098e-01 4351
-5.287883e-01 -7.448758e+00 1.184994e+01 4352
-3.339615e+01 1.139766e+01 2.918885e+01 4353
1.045917e+01 1.777514e+01 2.121937e+00 4359
-2.605878e+01 1.043406e+01 5.693396e+00 4370
3.709860e+01 -9.552645e+00 5.199768e+00 4378
-3.049170e+01 2.036770e+01 1.202535e+01 4389
1.038040e+01 -2.279046e+01 6.918611e+00 4395
-2.812720e+00 1.407039e+01 2.495701e+01 4396
-2.247928e+01 2.150494e+01 2.330834e+01 4402
-5.933478e+00 -2.702376e+00 1.587080e+01 4404
3.566574e+01 -9.787688e+00 3.254406e+00 4408
3.740041e+01 -2.224212e+01 2.242018e+01 4409
4.871505e+01 -5.222563e+00 2.232258e+01 4415
9.913121e+00 9.607662e+00 5.806062e-01 4423
-1.057515e+01 -6.068550e+00 2.622519e+01 4432
-3.241893e+01 1.831151e+01 1.629334e+01 4434
-4.194524e+01 -1.509368e-02 1.060410e+01 4435
1.213356e+01 1.015711e+01 1.482165e+01 4448
-3.896599e+01 1.267381e+01 2.992411e+01 4453
-4.945472e+01 1.159473e+01 2.133781e+01 4462
-2.581440e+01 2.054141e+01 2.888618e+01 4470
-2.384008e+01 2.244061e+01 4.379426e+00 4480
1.913910e+01 1.889207e+01 1.381669e+01 4481
2.459858e+01 5.084629e-01 2.478694e+01 4485
-1.845985e+01 1.344010e+01 1.713207e+01 4488
7.196803e+00 -1.062949e+01 9.795013e+00 4511
4.580355e+01 -5.590392e+00 1.882838e+01 4512
1.612699e+01 -6.286191e-01 1.873251e+01 4515
2.447727e+01 2.705389e+00 1.057445e+01 4524
-1.071409e+01 9.635169e+00 2.536693e+01 4537
-2.315674e+01 1.178638e+01 8.051952e+00 4538
-2.542418e+00 2.087129e+00 1.791726e+01 4541
-3.277734e+01 1.339865e+01 9.411310e+00 4544
4.240555e+01 -3.695285e+00 2.979428e+01 4553
-1.332175e+01 2.309679e+01 1.410976e+01 4578
1.028402e+01 1.262132e+01 1.903264e+01 4584
4.727249e+01 -6.817560e+00 1.207309e+01 4595
-4.832631e+01 6.452222e+00 1.089309e+01 4602
2.219659e+01 -1.216547e+01 8.248547e+00 4606
4.406345e+01 1.766426e+01 2.145842e+00 4614
3.877541e+01 2.404946e-01 4.905447e+00 4618
7.545029e-01 -3.944301e+00 6.190129e+00 4620
-3.258216e+01 -5.431038e+00 4.790602e-02 4621
3.375715e+01 -1.476234e+01 8.001309e+00 4623
-1.389951e+01 -2.485731e+01 6.283043e+00 4624
3.190770e+01 4.278791e+00 1.520198e+01 4626
4.195203e+00 -2.756311e+00 1.804961e+01 4635
-4.784919e+01 1.638960e+01 2.726173e+01 4636
-4.672173e+01 2.917246e+00 1.814114e+01 4638
-4.806330e+01 -1.366463e+01 1.760300e+01 4640
4.372045e+01 1.274729e+01 3.874099e+00 4645