Title = Snapshot #29
Variables=X Y Z PartID
Zone I= 6394, F=POINT
9.190828e+00 -1.109564e+01 2.054810e+01 2
9.965845e+00 1.104644e+01 2.777455e+01 8
8.388206e+00 2.107726e+01 2.173144e+01 12
-6.451213e+00 6.120718e+00 9.770143e+00 14
-3.351508e+01 1.930948e+01 9.193434e-01 17
-2.327010e+01 1.248658e+01 8.685383e+00 18
-3.561229e+01 -2.264358e+01 2.022081e+01 21
-1.902362e+01 -1.462714e+01 2.532370e+01 23
1.844508e+01 -1.180831e+01 1.492688e+01 31
-1.647017e+01 -4.466434e-01 4.614773e+00 41
6.438573e+00 7.289063e+00 1.330033e+01 42
-2.200451e+01 5.112054e+00 2.172892e+01 45
-4.435065e+01 -2.138899e+01 2.677129e+01 74
-2.907058e+01 -1.269585e+01 7.991296e+00 80
3.074646e+00 2.372522e+01 1.310482e+01 82
-4.836071e+01 -1.498555e+01 2.489043e+01 83
2.498242e+01 1.335488e+01 7.368827e+00 91
2.937983e+01 -1.156870e+01 2.225420e+01 95
3.255056e+01 1.312952e+01 2.511898e+01 98
4.473162e+01 1.207726e+01 1.694829e+01 135
6.715031e+00 -8.193777e+00 1.643236e+01 137
3.320772e+01 8.823080e+00 1.319440e+01 150
-1.829006e+01 -5.895396e+00 8.493413e+00 158
-2.281882e+01 -2.414975e+01 1.579423e+01 166
2.913052e+01 1.011991e+00 1.516202e+01 171
2.328021e+01 1.311448e+01 5.378056e+00 181
-9.686330e+00 6.228088e+00 1.104100e+01 214
-1.920282e+01 2.080944e+01 6.431578e+00 217
-4.064863e+01 -1.452134e+01 2.559139e+01 219
1.543642e+00 2.628322e+00 1.049234e+01 233
-4.541508e+01 1.530250e+01 8.494294e+00 234
2.233360e+01 -1.507096e+01 5.056873e+00 257
-4.336515e+01 -1.916425e+01 2.040855e+01 279
8.800459e+00 2.501382e+00 1.995838e+01 295
-4.396203e+01 -1.812057e+01 3.891547e+00 309
3.726272e+01 -1.924562e+01 6.600310e+00 317
8.288743e+00 7.318798e-01 2.584935e+01 319
9.371138e+00 -1.848942e+01 2.468471e+01 321
-4.187261e+01 1.509264e+01 1.859030e+01 325
-4.889175e+01 -1.262331e+01 1.650694e+00 329
3.505846e+01 2.051025e+01 2.977259e+01 337
-3.157009e+01 -1.110700e+01 7.926325e+00 340
4.223642e+01 2.369293e+01 2.852998e+01 352
4.551568e+01 1.440909e+01 1.757768e+01 363
-1.267205e+01 2.346285e+01 3.284185e+00 373
4.328128e+01 5.236756e-01 2.902690e+01 375
-2.623286e+01 1.216589e+01 4.487017e+00 396
1.615378e+01 1.038563e+01 1.159214e+01 412
-1.323539e+01 -1.932887e+01 2.398688e+01 425
4.608320e+00 1.420727e+01 5.199620e-01 426
-4.154658e+00 1.516770e-01 8.829114e+00 427
2.022709e+01 1.044894e+01 2.363437e+01 441
1.909248e+01 1.571205e+01 2.700384e+01 443
1.018136e+01 1.991242e+01 2.569469e+01 454
2.474171e+01 1.011155e+01 2.559651e+01 457
-2.380811e+00 2.275005e+01 1.881942e+01 467
3.457467e+01 -1.488809e+01 8.159226e+00 477
3.775441e+01 3.797382e+00 4.823746e+00 504
-8.610465e+00 5.733523e+00 1.500028e+01 505
1.316184e+01 1.372733e+01 2.955544e+01 506
3.130547e+00 -1.338539e+01 1.083067e+01 510
-6.988642e+00 1.078955e+01 8.319017e+00 521
-1.686717e+01 -2.090147e+01 8.714773e+00 524
-3.600940e+01 6.312280e+00 2.539059e+01 536
1.621683e+01 1.877248e+01 2.101832e+00 537
-1.058308e+01 -1.094778e+01 2.815418e+01 555
4.802443e+01 1.448707e+01 2.760760e+01 558
-1.166536e+01 5.193222e+00 2.917417e+01 559
2.803278e+01 1.264854e+01 2.912777e+01 564
3.917475e+01 1.866108e+01 1.655368e+01 578
-6.235864e+00 2.055657e+01 4.208582e-01 581
-4.667011e+01 4.954480e-01 1.639595e+01 582
-2.772023e+01 1.392039e+01 1.372166e+01 588
4.461533e+01 2.147495e+01 1.550043e+01 591
-1.948247e+00 1.567781e+01 2.741580e+01 594
-4.915429e+01 6.556500e+00 3.425145e+00 599
-8.220124e+00 -2.362735e+01 8.577660e-01 611
-4.206596e+01 -7.416837e+00 1.459463e+01 626
4.023408e+01 1.749180e+01 2.660971e+00 629
-8.154005e+00 2.308397e+01 2.658733e+01 634
6.435504e-01 -1.394779e+01 6.508824e+00 636
-1.858451e+01 -7.908208e+00 2.208459e+01 640
2.569134e+01 1.590778e+01 1.998891e+00 650
4.847308e+01 -2.386447e+01 9.770550e+00 657
-1.247968e+01 -2.110665e+00 2.101693e+01 661
-4.206780e+01 -7.719420e+00 8.923438e+00 667
1.173595e+01 -1.191774e+01 2.316809e+01 674
2.890376e+01 -1.224391e+01 2.926108e+00 675
5.756870e+00 -1.528036e+01 1.424418e+01 686
4.084710e+01 9.712095e-01 1.982117e+01 687
1.837221e+01 -5.689507e+00 2.738428e+01 688
-2.399216e+01 -1.307622e+01 2.120675e+01 691
-2.724204e+01 -6.443512e+00 8.715264e+00 697
-2.763857e+01 1.603815e+01 1.313708e+01 701
-2.212275e+01 -9.841019e+00 2.671586e+01 702
-1.476873e+01 1.692257e+01 2.518442e+01 704
4.511920e+01 2.180883e+01 1.072238e+01 723
3.202856e+01 1.559180e+01 1.966771e+01 724
1.617040e+01 1.265405e+01 1.118339e+01 729
-5.387758e+00 -8.087354e+00 2.493190e+01 731
-4.739726e+01 -2.117297e+01 7.562127e+00 739
-2.397812e+01 1.490331e+01 1.586361e+01 743
3.417128e+01 1.073444e+01 2.700366e+01 747
-4.947413e+00 -7.102192e+00 4.131816e+00 749
3.147375e+01 -1.195173e+01 1.066948e+01 752
2.056707e+01 1.087649e+01 2.785113e+01 754
-2.281891e+01 9.299467e-01 1.959658e+01 763
2.487050e+00 -1.187490e+01 3.430774e+00 776
-3.771459e+01 -2.452508e+01 5.343260e+00 782
3.553383e+01 -7.701204e+00 1.246253e+01 783
-1.753345e+01 6.942000e+00 7.359003e+00 791
-2.463836e+01 1.811015e+01 2.398976e+01 793
2.160085e+00 1.654642e+01 2.601519e+01 797
9.221805e+00 -3.989277e+00 2.660422e+01 814
1.453096e+01 -1.055086e+01 2.713993e+01 823
3.285620e+01 1.333386e+00 1.714157e+01 841
-4.393344e+01 -1.825613e+01 4.587945e+00 848
2.668519e+01 4.252023e+00 2.596156e+01 852
3.470199e+00 -6.555891e+00 4.692016e+00 853
1.311584e+01 6.695224e+00 1.124511e+01 860
1.709048e+01 -5.668849e+00 3.483937e+00 862
1.677246e+01 1.336634e+01 1.038511e-01 865
-1.189028e-01 1.243107e+01 1.548283e+01 871
-1.086324e+01 -1.986020e+01 1.823136e+01 879
8.224575e+00 -1.654518e+01 2.223679e+01 890
-3.540418e+01 2.149084e+01 4.244267e+00 891
-3.165153e+01 1.955281e+01 2.924254e+01 892
-3.031042e+01 1.122586e+01 1.943740e+01 893
-1.080882e+00 1.374056e+00 1.784905e+01 899
1.865406e+01 -2.324692e+01 1.577260e+01 901
4.034679e+01 5.477693e+00 1.251752e+00 903
-2.687028e+01 9.094232e+00 1.653872e+01 918
-3.655992e+01 -5.694367e+00 2.317595e+01 928
-9.698705e+00 2.438298e+01 2.541558e+01 939
-3.104867e+01 -1.134600e+01 1.216681e+01 961
-6.663223e+00 -7.134517e+00 2.982500e+01 971
-1.750736e+01 -5.726862e+00 2.929265e+01 973
1.747154e+01 -2.482285e+01 1.475970e+01 974
1.604704e+01 4.534212e-01 2.256500e+01 980
-4.384136e+00 -1.379237e+01 2.055332e+00 984
2.603020e+01 1.777941e+01 2.734755e+01 994
-3.283877e+01 -8.989123e+00 6.404553e+00 1000
8.328195e+00 9.492844e+00 2.967627e+01 1005
-3.122858e+01 9.322813e+00 2.270954e+01 1010
-1.342094e+01 1.310951e+01 2.806132e+01 1013
-3.763227e+01 6.291620e+00 2.604526e+01 1019
-1.289364e+00 -1.496081e+01 1.560636e+00 1024
-2.207666e+01 -9.896960e+00 2.425198e+01 1033
4.825050e+01 6.950792e+00 2.321308e+01 1046
1.086006e+01 2.227310e+01 9.126960e+00 1054
1.685522e+00 -7.645994e+00 2.717720e+01 1056
-3.569207e+01 2.353682e+01 4.045353e+00 1058
-4.752721e+01 3.064884e+00 4.581424e+00 1073
2.244971e+01 2.247693e+01 4.903595e+00 1091
2.492710e+01 1.954955e+01 5.536603e+00 1096
-9.228758e+00 -1.162998e+01 2.527394e+01 1100
3.582410e+00 1.078723e+01 9.577880e+00 1119
2.124974e+01 1.734532e+01 7.067294e+00 1133
-2.712307e+01 1.975805e+01 1.495181e+01 1137
1.828659e+01 1.190963e+01 3.373938e+00 1140
-3.121275e+01 -1.608518e+01 1.488628e+01 1147
1.744499e+01 1.573595e+01 1.415780e+01 1168
-4.663317e+01 -2.167625e+00 9.878281e+00 1174
-1.335002e+01 -2.400011e+01 6.219895e+00 1176
2.639198e+01 1.026793e+01 7.004253e+00 1183
-4.094135e+01 -2.183690e+01 1.031730e+01 1193
-2.578979e+01 -2.114791e+01 1.190175e+01 1196
-4.841097e+01 6.768296e-01 1.955207e+01 1198
4.595571e+01 5.026216e+00 2.262158e+01 1210
-4.653953e+01 1.524940e+01 2.301901e+01 1222
4.449108e+00 1.797317e+01 3.942568e+00 1226
-1.417498e+01 1.444194e+01 2.015866e+01 1230
-4.377567e+01 -1.664863e+01 1.399581e+00 1232
2.685026e+01 1.289773e+00 6.029284e+00 1238
4.625552e+01 -3.123832e+00 1.186904e+01 1242
-4.185177e+00 -1.076121e+01 2.492520e+00 1250
4.914052e+01 -1.428536e+01 1.301408e+01 1252
-1.415966e+00 1.599275e+01 9.173582e-01 1260
3.598920e+01 5.367120e+00 2.446441e+01 1273
-2.758610e+01 -5.833128e+00 1.272580e+00 1278
2.624505e+01 -9.521894e+00 1.773968e+00 1284
-1.515660e+01 4.637158e+00 2.488606e+01 1286
3.155859e+01 9.753072e+00 1.453585e+00 1292
-1.929135e+00 -4.742544e-01 2.841427e+01 1312
-2.037999e+00 -5.292800e+00 2.060530e+01 1323
-1.872343e+01 -2.309308e+01 2.415502e+01 1326
-2.147871e+01 -2.178837e+01 2.367462e+01 1332
2.987122e+01 -2.074075e+01 2.461531e+01 1333
-4.540048e+01 -7.325052e-02 1.824834e+01 1334
2.111966e+01 -1.864034e+01 1.514658e+01 1337
-1.860620e+01 4.009236e+00 3.927066e+00 1340
-5.555881e+00 -1.459115e+01 2.796601e+01 1342
7.774998e-01 5.073328e+00 2.011753e+01 1346
2.511398e+01 1.682440e+01 1.613146e+01 1350
1.093537e+01 -5.737988e+00 2.684331e+01 1351
3.681366e+01 8.780205e-01 1.850325e+01 1352
-5.030248e+00 -4.754652e+00 1.235129e+01 1356
8.211359e+00 -6.256492e+00 1.472119e+01 1362
-4.406070e+01 5.424358e+00 1.548680e+01 1374
3.392312e+01 7.978450e+00 1.257143e+01 1375
3.288240e+01 1.038770e+01 1.438799e+01 1382
1.829670e+01 -2.542101e+00 2.030032e+01 1385
-5.611370e-03 -2.380484e+01 1.559770e+01 1395
1.566464e+01 1.235865e+01 1.364332e+01 1415
1.270203e+01 -1.849002e+01 1.936773e+01 1420
-7.150800e+00 1.973026e+01 6.457484e+00 1421
1.988451e+01 -1.786629e+01 1.996097e+01 1423
1.962446e+01 -1.170202e+01 8.668552e+00 1442
-4.951232e+01 2.299121e+01 1.798207e+01 1445
4.985287e+01 -4.913730e+00 1.059532e+00 1446
8.844084e+00 2.142280e-02 1.779252e+01 1451
9.791245e+00 7.813848e+00 1.340545e+01 1455
3.601411e+01 -9.161766e+00 1.559656e+00 1460
1.124654e+01 -1.632230e+01 1.845483e+01 1470
-2.046639e+01 -4.054609e+00 5.981061e+00 1471
-2.828054e+01 -9.200550e+00 2.249504e+01 1472
3.750971e+01 -8.975977e+00 1.397962e+01 1474
-3.150471e-01 -1.388912e+01 1.469389e+01 1478
-4.233795e+01 1.738500e+01 2.220743e+01 1479
-1.650230e+01 -1.122957e+01 1.222575e+01 1493
2.757674e+01 -1.568800e+01 1.196309e+01 1496
-3.722479e+01 1.290062e+01 1.524534e+01 1502
1.857736e+01 1.803353e+01 1.692715e+01 1514
-3.148018e-01 -1.174156e+01 2.787435e+01 1516
3.703755e+01 -2.993530e+00 8.233375e-02 1517
-2.816837e+00 2.127314e+01 2.031483e+01 1518
-1.247145e+01 -1.928818e+01 7.540568e+00 1523
4.632049e+01 -1.834163e+01 2.817161e+01 1531
-4.941242e+01 -9.591668e+00 1.473284e+01 1543
-4.593080e+00 1.793506e+01 3.085352e+00 1546
3.221259e+01 -3.251771e+00 8.059334e+00 1551
-4.689658e+01 1.104747e+01 2.493765e+01 1562
7.180058e+00 1.766161e+01 2.820553e+01 1576
-3.248711e+01 1.198481e+01 2.186774e+01 1580
-3.938922e+01 1.627537e+01 2.052552e+01 1582
4.906351e+01 -1.663148e+01 1.988460e+01 1584
-4.082851e+00 -1.256879e+01 1.999065e+01 1589
-2.813947e+01 2.149288e+01 2.937657e+01 1591
-1.799590e+01 2.382080e+01 2.815176e+01 1595
-3.063784e+00 1.032151e+01 2.521273e+01 1598
1.510317e+01 2.156613e+01 1.608218e+01 1606
4.488806e+00 -8.919031e+00 2.259740e+01 1615
2.085121e+01 -1.188403e+01 4.390581e+00 1617
3.243374e+01 -6.045057e+00 1.108881e+01 1620
-6.768397e+00 1.142701e+01 5.583545e+00 1623
-3.219731e+01 -2.411904e+01 1.212252e+01 1634
2.344723e+01 2.302714e+01 2.345691e+01 1642
-3.951023e+00 -3.809301e+00 1.539539e+01 1655
-4.004656e+01 1.606767e+01 3.716540e+00 1667
7.033150e+00 -2.134814e+01 1.986263e+01 1669
7.828911e+00 -7.590642e+00 1.615806e+01 1687
-3.956629e+01 -9.662839e+00 1.083219e+01 1701
2.453020e+01 1.641410e+01 2.011832e+01 1709
-4.454657e+01 7.602191e+00 1.074089e+01 1724
4.914845e+01 -6.900214e+00 2.725673e+01 1727
2.823367e+01 1.138660e+01 1.858832e+01 1735
3.814963e+00 7.366664e+00 1.015740e+01 1743
1.975464e+01 4.410330e+00 1.885902e+01 1744
3.260215e+01 7.996891e+00 4.044176e+00 1752
4.624200e+01 1.251961e+01 1.447392e+01 1754
-4.083146e+01 2.242871e+01 2.056137e+01 1756
1.142544e+01 9.398617e+00 2.171256e+01 1757
-4.051145e+01 1.756683e+01 5.352383e-02 1761
2.417982e+01 -2.388974e+00 6.467086e-01 1763
2.185753e+01 -2.252489e+01 2.899759e+01 1772
-4.572875e+01 -2.091649e-02 1.985622e+01 1773
-6.591647e+00 -1.947650e+01 1.707060e+01 1777
3.642185e+01 -1.213099e+01 1.179206e+00 1779
4.705274e+01 -1.138091e+01 2.602407e+01 1782
1.796066e+01 1.434385e+01 1.090601e+01 1784
-3.583275e+01 -9.319306e+00 1.913385e+01 1794
-3.298604e+01 -2.222522e+01 2.085469e+01 1810
-4.485810e+01 8.133245e+00 8.805742e+00 1811
1.294663e+01 -2.472739e+01 1.606732e+01 1833
3.944954e+01 -6.414836e+00 2.667634e+01 1862
-2.645431e+01 4.045416e+00 1.577899e+01 1874
1.160696e+01 1.409708e+01 1.640882e+00 1876
3.424445e+01 -2.413870e+01 1.406827e+01 1877
2.712138e+01 2.099886e+01 1.756729e+01 1888
4.648319e+01 1.766758e+01 2.291040e+00 1895
-1.619910e+01 5.511775e-01 8.372405e+00 1906
4.854598e+01 -1.240974e+01 2.445533e+01 1908
2.715098e+01 -1.377378e+00 6.489114e+00 1912
-3.164247e+01 1.739231e+01 1.848846e+01 1920
1.278757e+01 1.840210e+01 1.792233e+01 1931
-4.540980e+01 2.385910e+01 3.863222e+00 1933
4.649591e+01 9.076302e+00 2.584111e+01 1959
5.531176e-01 5.229593e+00 2.029228e+01 1968
-2.001630e+01 3.230297e+00 1.411513e+01 1972
-2.697856e+01 2.314916e+01 1.406367e+00 1973
4.478510e+01 2.045592e+00 1.448775e+01 1984
4.758775e+00 -1.004748e+01 1.790684e+01 1987
4.820286e+01 -2.415681e+01 9.711811e+00 1988
2.070055e+01 5.345591e+00 2.560842e+01 1990
4.773990e+01 1.392603e+01 2.278203e+01 1996
1.746449e+01 1.329638e+01 7.500723e+00 1997
-2.498077e+01 -5.473150e+00 2.298090e+01 2002
1.238856e+01 2.181625e+00 2.744254e+01 2009
3.564512e+01 -3.007139e+00 2.706448e+01 2042
1.841054e+01 1.287529e+01 1.351603e+01 2044
-8.198025e+00 -1.682036e+01 2.663619e+01 2054
7.752224e+00 8.329026e+00 8.670330e+00 2057
1.745736e+01 2.284868e+01 2.006420e+01 2062
-1.524057e+01 9.281675e+00 1.917384e+01 2063
2.857530e-01 1.013089e+01 8.631669e+00 2091
-4.810104e+01 5.364140e+00 8.535489e+00 2092
-2.655277e+01 -1.374984e+01 1.739115e+01 2093
2.938131e+01 7.627406e+00 2.544607e+00 2094
-3.573234e+01 1.953491e+01 2.811052e+01 2109
-1.086455e+01 -6.461746e+00 6.279553e+00 2118
-2.979952e+01 2.462368e+01 5.314087e+00 2126
4.488811e+01 9.777097e+00 4.180825e+00 2128
1.339579e+01 -1.522969e+01 1.821908e+01 2129
-2.312929e+00 2.043409e+01 2.443099e+01 2137
1.086610e+01 3.194180e+00 5.744559e+00 2142
4.319629e+01 1.005085e+01 1.456218e+01 2145
2.161799e+01 2.407578e+01 2.531285e+01 2148
-1.027851e+01 -1.556288e+01 1.256423e+01 2153
3.435515e+01 1.495312e+01 1.404525e+01 2154
-1.640529e+01 1.900395e+01 1.850132e+01 2159
1.055091e+01 -8.589522e-01 1.300232e+01 2166
-4.300090e+01 7.501734e+00 8.556901e+00 2191
9.454155e+00 2.347395e+01 1.934772e+00 2200
-8.281342e+00 -8.908351e+00 1.137552e+01 2210
-3.869543e+01 7.684482e+00 2.402832e+01 2217
1.402879e+01 -5.087441e+00 2.463185e+01 2227
7.144575e+00 -1.289796e+01 2.735059e+01 2233
3.338609e+01 2.573326e+00 4.179084e+00 2234
3.828324e+01 -1.907998e+01 2.470886e+01 2238
-3.144900e+01 9.817894e+00 2.373800e+01 2240
-3.752566e+01 -1.152000e+01 2.224612e+01 2244
-8.789816e+00 1.804995e+01 1.032286e+01 2252
-4.281383e+01 -1.231314e+01 3.662341e+00 2253
4.396702e+01 -2.499093e+01 2.042459e+01 2258
-4.413878e+01 8.945451e+00 9.625133e+00 2269
3.515923e+01 -4.975392e-01 6.153825e+00 2270
2.060414e+01 1.954936e+01 2.608373e+01 2287
9.378296e+00 8.514613e+00 1.534300e+01 2292
-3.365950e+01 1.355219e+01 2.216802e+00 2297
-1.914943e+01 -7.141445e+00 2.885709e+01 2307
2.698266e+01 1.058234e+01 8.735360e+00 2314
3.515540e+01 9.306557e+00 1.782601e+01 2334
1.239952e+01 7.503664e+00 2.869714e+01 2357
-1.122557e+01 2.370264e+01 2.669129e+01 2361
-1.987327e+01 9.768973e+00 2.517682e+01 2372
-2.203023e+01 -1.487006e+01 9.479305e-01 2386
-4.834379e+01 2.013288e+01 1.490051e+01 2391
4.808659e+00 2.266990e+01 2.417341e+01 2399
3.697492e+01 -9.293014e+00 2.848730e+00 2408
7.719107e+00 2.301925e+01 1.243881e+00 2425
4.880442e+01 -1.988147e+01 1.873685e+01 2426
2.816657e+01 -3.464139e+00 2.994225e+01 2428
-3.187316e+01 -8.692651e+00 2.261204e+01 2442
2.384224e+01 1.865929e+01 2.384807e+01 2451
-1.131187e+01 -1.635196e+01 2.252111e+01 2452
-1.599757e+01 -1.730919e+01 1.975838e+01 2454
4.469645e+01 -1.649178e+01 2.775955e+01 2494
-2.543995e+01 -6.319761e+00 1.799039e+01 2520
4.220729e+01 -2.340821e+01 1.571471e+01 2526
-2.815753e+01 1.340674e+00 1.474556e+00 2528
2.384044e+01 -1.859765e+01 2.539011e+01 2542
-2.936206e+01 9.321391e+00 2.169984e+01 2544
-1.543282e+01 1.187419e+01 1.749959e+01 2556
-1.304566e+01 -1.768074e+00 2.682770e+01 2566
-2.867150e+00 -1.210228e+01 5.010223e+00 2571
-8.209194e+00 9.904357e+00 1.487592e+01 2586
2.376227e+01 -8.376940e+00 2.294808e+01 2587
-3.566467e+01 2.230404e+01 2.953594e+01 2594
4.329304e+01 -3.128738e+00 1.463696e+01 2595
-1.748341e+00 1.503795e+01 7.662669e+00 2597
9.383757e+00 1.805908e+01 1.190032e+01 2598
-9.982442e+00 -2.253424e+01 2.104916e+00 2607
-1.665051e+01 -2.217296e+01 2.579608e+01 2633
2.831089e+01 2.212229e+01 2.689666e+01 2637
2.264290e+01 2.263973e+01 1.207853e+01 2640
1.818143e+01 -1.295911e+01 1.079700e+01 2644
-1.261894e+01 -9.381196e+00 4.542311e+00 2646
-4.611169e+01 -1.937751e+01 9.408213e+00 2649
-7.903699e+00 -1.701269e+01 2.705168e+01 2651
-4.375059e+01 -1.395762e+01 1.445872e+01 2653
-4.038906e+01 5.076013e+00 2.121960e+01 2670
-2.371688e+00 1.131502e+01 3.407013e+00 2704
-1.742202e+01 -1.978178e+01 1.607896e+01 2710
4.407640e+01 -4.622314e+00 2.697386e+01 2713
2.401935e+01 -5.133663e-01 9.272320e-01 2717
3.452789e+01 1.660853e+01 2.167716e+01 2731
4.405181e+01 -1.354555e+01 2.742609e+01 2734
2.842465e+01 -1.650502e+01 2.771344e-02 2739
-2.511724e+01 8.010181e+00 1.450329e+01 2752
-4.115868e+01 5.886724e+00 1.623072e+01 2760
-1.661218e+01 -2.278748e+01 2.895436e+01 2765
4.403150e+01 1.131105e+01 1.644005e+00 2769
4.213985e+01 8.277693e+00 2.461003e+01 2771
-2.234449e+01 -2.132178e+01 2.776160e+01 2772
2.425569e+01 -1.892947e+01 3.546643e+00 2782
4.940707e+00 -1.038757e+01 2.921350e+01 2787
-2.281974e+01 4.776306e+00 1.534018e+00 2795
1.903240e+01 -9.518153e+00 2.448497e+01 2800
2.375960e-02 -2.275233e+01 8.300242e+00 2814
1.339634e+01 1.682566e+01 2.783485e+01 2816
-3.689051e+01 2.239879e+01 4.201347e+00 2836
-3.355762e+01 -1.504630e+00 9.548666e+00 2848
-4.922624e+01 4.453008e+00 2.676216e+01 2860
-4.018229e+01 1.866237e+00 2.317624e+01 2866
-1.034025e+01 9.946818e+00 5.290411e+00 2868
-4.504755e+01 -5.028432e+00 1.357603e+01 2874
-1.795258e+01 -2.331851e+01 2.519211e+00 2877
1.829307e+01 1.084516e+00 4.407413e+00 2879
4.544943e+01 2.157021e+01 2.285988e+01 2883
3.297898e+00 1.574235e+01 6.737703e+00 2906
-1.195347e+01 1.049488e+01 2.481097e+01 2907
3.464171e+01 1.840484e+01 1.977645e+00 2923
-2.782490e+01 -2.012704e+01 2.347305e+01 2926
-2.658188e+01 -7.669466e-01 1.390338e+01 2940
-2.872430e+01 1.900560e+01 1.870420e+01 2943
4.084548e+01 -1.376665e+01 1.941822e+01 2952
2.563736e+01 -5.204251e+00 2.029594e+00 2956
4.883673e+00 -2.132326e+01 1.100745e+01 2970
-4.905652e+01 -1.985872e+00 3.736447e+00 2971
2.585038e+01 -1.167388e+01 2.829167e+01 2982
1.378229e+01 1.126944e+01 1.609216e+01 2990
-3.279306e+01 1.610800e+01 1.687422e+01 2995
-2.125034e+01 5.414749e+00 1.051446e+01 2998
-1.578896e+01 1.726330e+00 1.036248e+00 3008
6.077886e+00 5.595584e+00 2.914198e+01 3025
-3.965395e+01 6.014021e+00 2.559833e+01 3028
3.204819e+01 -2.470517e+01 7.030560e-01 3044
1.647887e+01 1.835544e+01 2.299509e+01 3059
-4.583816e+01 -1.910293e+01 2.140326e+01 3067
2.886029e+00 -9.719855e+00 2.161084e+01 3081
1.965951e+01 6.548414e-01 1.938845e+01 3083
-2.410123e+01 -1.075476e+01 1.139178e+01 3089
4.994463e+01 -1.431223e+01 1.980478e+01 3094
-3.662037e+01 -1.830634e+01 1.586058e+01 3103
7.663779e+00 1.078789e+01 9.920807e+00 3104
-3.003206e+01 1.623150e+01 2.970970e+01 3120
1.671463e+01 1.704630e+01 7.685497e+00 3123
-1.671023e+01 -1.145873e+01 2.941255e+01 3134
-4.947462e+01 -1.018724e+01 2.075188e+01 3140
2.667396e+01 -2.607912e+00 6.622502e-01 3156
4.509090e+01 -8.512449e+00 3.128329e+00 3157
-4.288164e+01 -1.632566e+01 2.493210e+00 3198
1.052218e+01 -6.900013e+00 2.614033e+01 3200
4.678778e+01 2.424559e+01 2.807008e+01 3209
4.111361e+01 2.258262e+01 2.722547e+01 3218
-2.415932e+01 1.607483e+01 1.774994e+00 3223
-1.369072e+01 1.418949e+00 1.325004e+01 3244
2.979146e+01 5.400672e+00 1.986904e+01 3248
2.453690e+01 -1.369402e+01 2.432456e+01 3254
4.940935e+01 4.259822e+00 1.208391e+01 3257
-4.742515e+01 -1.939750e+01 2.779837e+00 3258
4.487682e+01 -3.698480e+00 1.088220e+01 3259
3.356701e+00 2.031346e+01 2.664534e+01 3262
4.749045e+01 -4.479828e+00 1.892744e+01 3263
3.068625e+01 -1.687751e+01 3.876540e+00 3273
-5.190707e+00 -2.058870e+01 2.310390e+01 3285
4.099260e+01 -1.626671e+01 3.443796e+00 3308
2.580937e+01 1.567840e+01 5.537921e+00 3317
-4.027860e+01 -7.331643e+00 6.283168e-01 3321
-2.962479e+01 2.471400e+01 2.164657e+01 3322
-3.934094e+01 -2.145309e+01 2.974401e+01 3323
2.285414e+01 9.630559e+00 3.191651e+00 3333
3.373712e+01 1.336106e+01 1.428825e+01 3347
2.036927e+01 -1.002712e+01 3.523432e+00 3348
-2.113259e+01 -2.070455e+01 3.659700e+00 3353
-1.786525e+01 -2.031816e+01 2.806081e+01 3357
3.647880e+01 -7.071935e+00 1.009627e+01 3366
-2.321555e+01 1.192380e+01 1.011710e+01 3375
4.125587e+01 -6.222826e+00 1.521261e+00 3398
-3.893864e+01 1.689014e+01 5.865143e+00 3402
-4.323933e+01 1.125144e+01 2.753389e+01 3415
-2.318619e+01 1.685553e+01 2.234601e+00 3431
-1.360792e+00 -8.088250e+00 2.091771e+01 3433
2.822216e+01 -1.511540e+01 2.942613e+01 3445
-3.754465e+01 -2.312517e+01 2.048538e+01 3447
4.913627e+01 -2.447015e+01 2.754522e+01 3450
3.196524e+01 1.749038e+01 2.238585e+01 3456
-2.596661e+01 -9.051854e+00 2.194137e+01 3460
-4.439279e+01 2.037763e+01 2.356143e+01 3461
4.539019e+01 -2.355589e+01 1.922743e+01 3463
2.918799e-01 8.189301e+00 2.967871e+01 3464
-3.625187e+01 -1.430347e+00 1.470721e+01 3484
1.886491e+01 -2.393565e+01 3.730197e+00 3487
2.423062e+01 -6.826956e+00 2.256561e+01 3488
2.343125e+01 1.814678e+00 7.876174e+00 3491
3.425473e+01 -3.624989e+00 1.770980e+01 3492
-1.131800e+01 2.775631e+00 2.705519e+01 3498
6.419085e+00 -1.217527e+01 1.245393e+01 3503
-3.729063e+01 -2.459978e+01 2.116726e+01 3526
1.586917e+00 1.470442e+01 2.077988e+01 3527
-4.209401e+01 -4.513937e+00 8.863929e+00 3532
3.156880e+01 -1.937819e-01 7.183411e+00 3535
-3.232966e+01 -1.728261e+01 1.961646e+01 3538
-2.499465e+01 -6.813489e+00 1.663853e+01 3562
4.828022e+01 -1.763189e+01 1.502033e+01 3578
2.388371e+01 8.682076e+00 1.000103e+01 3593
-3.028780e+01 -2.308823e+01 5.408476e+00 3604
-2.179040e+01 -1.623182e+01 1.484938e+01 3612
1.494658e+01 -1.138662e+01 2.415125e+01 3614
4.211797e+01 -6.216491e+00 1.417146e+01 3621
-4.741003e+01 -1.566796e+01 2.201368e+01 3626
-3.681521e+01 -1.679253e+00 1.009697e+01 3639
-4.993787e+01 8.236993e-01 2.426782e+01 3643
-3.106574e+01 1.062606e+01 2.264199e+00 3652
-7.866159e+00 2.476902e-01 1.114950e+01 3659
-2.167407e+01 -1.653591e+01 1.535346e+01 3663
1.833836e+01 2.128654e+01 1.948530e+01 3669
4.538305e+01 -1.945522e+00 1.746880e+00 3675
4.243713e+01 -5.225560e+00 1.764339e+00 3677
-2.269396e+00 -1.713939e+01 4.426417e+00 3679
-3.269681e+01 6.083931e+00 1.614729e+01 3682
-3.833647e+01 -1.284388e+01 1.961018e+01 3685
-3.261748e+01 7.422977e-01 2.134489e+00 3686
4.214909e+01 -1.256789e+01 8.154460e+00 3713
4.566359e+01 -2.898249e+00 2.585403e+01 3717
-1.998676e+01 1.124037e+01 2.158224e+01 3727
-2.300950e+01 -1.172775e+01 2.847446e+01 3729
-2.745217e+01 -2.417804e+01 9.608447e+00 3730
2.237549e+01 -5.535626e-01 2.052997e+01 3733
-7.154225e+00 8.556322e-01 7.471141e+00 3734
2.481131e+01 1.682324e+01 2.910073e+01 3736
2.830968e+01 5.931249e-01 7.782656e+00 3741
1.214915e+01 1.199455e+01 2.789290e+01 3747
-4.855085e+01 -1.458827e+01 2.898149e+01 3755
-7.232810e+00 -1.612430e+01 1.450179e+01 3758
-2.105368e+01 -9.179113e+00 2.689840e+01 3760
-4.675443e+01 2.867227e+00 2.928473e+01 3761
-4.527096e+00 -1.806075e+01 1.475666e+01 3762
-4.703165e+01 -5.833543e+00 2.491591e+01 3766
3.757961e+01 1.798530e+01 2.584178e+01 3771
-3.316548e+01 -4.501766e+00 2.301915e+01 3780
4.424757e+01 2.877458e+00 8.229316e+00 3788
-9.978379e+00 -1.331225e+01 1.974761e+00 3798
2.339762e+01 -1.747259e+01 2.748349e+01 3800
8.370600e+00 -1.526080e+01 1.457085e+01 3801
2.864710e+01 2.002446e+01 1.807151e+01 3804
-2.258961e+01 8.835449e+00 1.139084e+01 3820
3.807885e+01 -6.605101e+00 3.195688e+00 3836
8.778964e+00 -1.272642e+01 3.939036e+00 3844
-4.131740e+01 1.373704e+01 2.542894e+01 3849
-2.065730e+01 -4.590453e+00 1.809843e+01 3854
3.237724e+01 1.457593e+01 1.955260e+01 3856
3.817755e+01 1.957100e+01 1.807998e+00 3857
5.552139e+00 2.105971e+01 1.697304e+01 3858
3.345977e+01 1.459185e+01 1.497103e+01 3859
-1.664227e+01 -2.424880e+01 1.609719e+01 3865
4.679385e+01 1.869697e+01 1.794706e+01 3880
3.156237e+01 -6.285370e+00 8.633601e+00 3889
1.455932e+01 -2.007715e+01 1.631915e+00 3910
3.903433e+00 -2.162229e+01 2.203532e+01 3911
4.338595e+01 -2.196454e+01 1.901146e+01 3929
4.572383e+01 -5.134115e+00 2.768263e+01 3930
-3.115580e+01 2.168042e+01 2.223913e+01 3935
3.456862e+01 -2.601148e+00 5.055841e+00 3953
1.529163e+01 5.961999e+00 2.453846e+01 3957
2.957044e+01 1.940499e+01 2.586414e+01 3963
3.724403e+00 7.884986e+00 1.428236e+01 3969
2.592775e+01 1.957539e+01 9.277794e-01 3973
-3.565774e+01 -1.238737e+01 2.185806e+01 3984
-1.602074e+01 -9.176318e+00 2.038178e+01 3989
-3.268937e+01 -1.236430e-03 6.118320e+00 4011
3.708677e+01 1.839985e+01 1.185599e+01 4016
7.281924e+00 -1.195314e+00 1.940946e+01 4017
-1.616248e+01 -7.026741e+00 1.248186e+01 4020
-4.598544e+01 9.579782e+00 2.127140e+01 4029
3.648740e+01 -9.185693e+00 2.901940e+01 4034
-6.452566e+00 8.235592e+00 1.568370e+01 4036
-1.606264e+00 -9.818001e-01 4.855461e+00 4037
-1.425900e+01 -6.796529e+00 8.571693e+00 4039
-4.723704e+00 3.605824e+00 2.686460e+01 4046
-4.795033e+01 -9.064200e+00 1.298066e+01 4057
4.633950e+01 -1.777681e+01 2.944479e+01 4061
1.854322e+01 8.641869e+00 2.559210e+01 4066
-3.891669e+01 -8.210156e+00 8.503750e+00 4079
2.592217e+01 1.397914e+01 7.504370e+00 4080
-3.374451e+01 6.400613e+00 1.468275e+01 4088
-2.627089e+01 -2.212583e+01 1.022463e+01 4104
4.175501e+01 -1.592166e+01 2.243631e+01 4106
3.501390e+01 -2.472807e+01 6.935175e+00 4120
2.352919e+01 1.861918e+01 1.269826e+01 4144
-4.848729e+01 1.516378e+01 2.484537e+01 4150
-2.525876e+01 -3.679336e+00 1.556086e+01 4152
4.459723e+01 1.455403e+01 2.399584e+01 4161
-1.201511e+01 -2.482664e+01 1.473248e+01 4165
3.934882e+01 -5.020753e+00 5.572810e+00 4170
7.171930e+00 4.231631e+00 2.017411e+01 4172
-6.995664e+00 -3.129174e+00 1.565077e+01 4178
1.697879e+01 1.604789e+01 1.235893e+01 4183
-2.012544e+00 1.112027e+01 2.887847e+01 4184
2.343423e+01 -1.537357e+01 3.311967e+00 4194
-1.643221e+01 7.332839e+00 2.706608e+01 4201
1.767633e+01 -2.393895e+01 1.454160e+01 4209
-5.149473e+00 -2.346584e+01 4.107470e+00 4211
1.233428e+01 2.139313e+01 2.403375e+01 4239
1.835113e+01 1.669522e+01 3.983768e+00 4245
3.528561e+01 6.776071e+00 2.014391e+00 4248
2.177700e+01 -1.941658e+01 1.518899e+01 4252
-1.451116e+01 -2.807084e+00 2.518126e+01 4256
-1.083171e+01 1.477940e+01 6.738579e+00 4265
-8.348174e-01 2.139990e+01 2.222168e+01 4266
2.127681e+01 8.592874e+00 2.538451e+01 4268
4.049697e+01 -1.735082e+01 2.368740e+01 4302
4.843083e+01 1.534491e+01 1.739675e+01 4304
-3.940463e+01 5.022955e-01 2.215127e+01 4308
-3.011231e+01 2.431915e+00 3.130074e+00 4314
3.537127e+01 -7.941787e+00 2.469204e+01 4318
3.389615e+01 8.617861e+00 1.684169e+01 4325
-1.632669e+01 -1.510303e+01 2.566515e+01 4332
1.517158e+01 -1.216903e+01 8.726008e+00 4340
-1.126897e+01 4.054824e+00 2.238178e+01 4347
-2.935595e+01 -3.746422e-01 4.801053e-01 4351
8.318064e+00 -5.915429e+00 1.290670e+01 4352
-2.224723e+01 1.017269e+01 2.831930e+01 4353
1.559409e+01 1.679397e+01 2.941815e+00 4359
-4.330221e+01 1.477482e+01 1.176912e+01 4360
-2.309383e+01 9.138348e+00 3.636532e+00 4370
4.256912e+01 -8.882518e+00 4.545095e+00 4378
-2.723709e+01 1.976866e+01 1.067344e+01 4389
1.512846e+01 -2.117496e+01 6.640597e+00 4395
7.094535e+00 1.520346e+01 2.394073e+01 4396
-1.481468e+01 2.139545e+01 2.039347e+01 4402
2.313351e+00 -1.802484e+00 1.785956e+01 4404
4.083807e+01 -9.411439e+00 2.903713e+00 4408
4.653619e+01 -2.032535e+01 2.198050e+01 4409
1.196926e+01 9.952592e+00 7.138545e-01 4423
-4.021834e+00 -3.802596e+00 2.701098e+01 4432
-2.735341e+01 1.496263e+01 1.729361e+01 4434
-3.700582e+01 2.105940e+00 1.352971e+01 4435
1.782237e+01 1.137611e+01 1.428059e+01 4448
-2.695596e+01 1.228572e+01 2.873354e+01 4453
-4.406186e+01 9.031893e+00 2.424332e+01 4462
-1.587816e+01 1.953035e+01 2.656686e+01 4470
-1.708086e+01 2.351521e+01 4.279623e+00 4480
2.336262e+01 2.050029e+01 1.473146e+01 4481
3.156677e+01 2.627905e+00 2.361537e+01 4485
-1.222258e+01 1.260532e+01 1.458275e+01 4488
1.383743e+01 -8.543327e+00 8.828247e+00 4511
2.007243e+01 -2.729265e-01 2.007419e+01 4515
2.955817e+01 2.638396e+00 1.080022e+01 4524
-7.826487e+00 -2.105683e+01 1.062185e+01 4534
5.652115e-02 1.003159e+01 2.404626e+01 4537
-1.714041e+01 1.294927e+01 4.820018e+00 4538
5.861585e+00 1.454352e+00 2.053435e+01 4541
-2.993977e+01 1.309040e+01 1.004982e+01 4544
-5.614119e+00 1.989109e+01 1.695550e+01 4578
1.557589e+01 1.188810e+01 1.954714e+01 4584
-4.057895e+01 6.074135e+00 1.613145e+01 4602
2.861007e+01 -1.125949e+01 8.867535e+00 4606
4.729721e+01 1.974914e+01 3.152737e+00 4614
4.390913e+01 -6.820100e-01 4.557016e+00 4618
6.530588e+00 -2.359544e+00 7.799806e+00 4620
-3.215739e+01 -5.220097e+00 9.067461e-02 4621
3.775276e+01 -1.277454e+01 7.669938e+00 4623
-7.093256e+00 -2.298012e+01 6.687914e+00 4624
3.657630e+01 3.069799e+00 1.497276e+01 4626
9.724030e+00 -3.201835e+00 1.863848e+01 4635
-3.640363e+01 1.705679e+01 2.732835e+01 4636
-4.238175e+01 9.821467e-01 2.271897e+01 4638
-4.436295e+01 -1.193958e+01 1.932635e+01 4640
4.695767e+01 1.397940e+01 2.795636e+00 4645
-4.535184e+01 -1.489436e+01 2.972932e+01 4646
9.837294e+00 -2.211750e+01 1.603145e+01 4654
1.836870e+01 -5.742594e+00 1.581673e+01 4659
-2.188050e+01 1.756404e+01 2.381672e+01 4660
8.856060e-01 -2.326366e+01 1.192108e+01 4663
-6.221499e+00 2.959887e+00 2.375456e+01 4665
-1.848881e+01 -1.877190e+01 1.721658e+01 4667
1.201811e+01 -2.275543e+00 2.223403e+01 4668
2.394373e+01 -2.437414e+01 2.681568e+01 4673