Title = Snapshot #22
Variables=X Y Z PartID
Zone I= 6412, F=POINT
-5.926414e+00 2.479077e+01 9.665688e+00 0
8.239814e+00 -1.080858e+01 2.039659e+01 2
7.387567e+00 1.117079e+01 2.790882e+01 8
6.843742e+00 2.051243e+01 2.147218e+01 12
-7.912295e+00 6.025524e+00 9.587064e+00 14
-3.476645e+01 1.954622e+01 9.504050e-01 17
-2.426506e+01 1.258954e+01 9.132232e+00 18
-3.758577e+01 -2.239379e+01 1.939392e+01 21
-2.119982e+01 -1.466140e+01 2.570209e+01 23
1.702787e+01 -1.200923e+01 1.459374e+01 31
-1.756053e+01 -9.506693e-01 4.140312e+00 41
5.360413e+00 7.387726e+00 1.263370e+01 42
-2.393444e+01 4.867413e+00 2.286373e+01 45
-4.640441e+01 -2.122137e+01 2.716975e+01 74
-2.986006e+01 -1.330987e+01 7.567919e+00 80
2.297083e+00 2.421610e+01 1.291384e+01 82
2.367474e+01 1.325879e+01 7.308711e+00 91
2.768494e+01 -1.156469e+01 2.228793e+01 95
3.037019e+01 1.361377e+01 2.579385e+01 98
4.323880e+01 1.251816e+01 1.670067e+01 135
5.510837e+00 -8.344111e+00 1.613372e+01 137
3.158915e+01 8.978909e+00 1.337572e+01 150
-1.905599e+01 -6.173325e+00 8.639890e+00 158
-2.302071e+01 -2.341502e+01 1.585580e+01 166
2.776271e+01 7.474512e-01 1.517846e+01 171
2.181277e+01 1.268412e+01 5.105273e+00 181
-1.114882e+01 7.028500e+00 1.139228e+01 214
-2.023899e+01 2.130302e+01 7.351389e+00 217
-4.266335e+01 -1.395807e+01 2.530459e+01 219
6.856448e-01 2.450390e+00 1.000955e+01 233
-4.781841e+01 1.660769e+01 9.571219e+00 234
2.064225e+01 -1.566236e+01 4.933733e+00 257
-4.516326e+01 -2.072729e+01 2.075184e+01 279
7.233357e+00 2.502696e+00 1.932193e+01 295
-4.534448e+01 -1.813960e+01 3.489719e+00 309
3.597533e+01 -1.928968e+01 6.839652e+00 317
6.059729e+00 3.095302e-01 2.505868e+01 319
7.897455e+00 -1.895045e+01 2.392847e+01 321
-4.339959e+01 1.491591e+01 1.758811e+01 325
3.245820e+01 2.070506e+01 2.989753e+01 337
-3.236005e+01 -1.099147e+01 7.692792e+00 340
4.020596e+01 2.368245e+01 2.811058e+01 352
4.356163e+01 1.487536e+01 1.722455e+01 363
-1.457955e+01 2.354898e+01 3.412455e+00 373
4.079962e+01 2.593540e-01 2.879649e+01 375
-2.751367e+01 1.251835e+01 4.397695e+00 396
1.476377e+01 1.029329e+01 1.194403e+01 412
-1.528966e+01 -1.964390e+01 2.451471e+01 425
3.549530e+00 1.405232e+01 4.765821e-01 426
-6.416011e+00 1.283062e-01 8.465915e+00 427
1.867036e+01 1.047759e+01 2.380505e+01 441
1.702712e+01 1.662400e+01 2.670435e+01 443
7.797836e+00 1.889779e+01 2.486902e+01 454
2.312294e+01 1.025729e+01 2.598132e+01 457
-4.283084e+00 2.234590e+01 1.828012e+01 467
3.276291e+01 -1.480318e+01 8.457849e+00 477
3.688161e+01 3.727223e+00 5.071433e+00 504
-9.743782e+00 5.867427e+00 1.451182e+01 505
1.027209e+01 1.339530e+01 2.963433e+01 506
7.590821e-01 -1.328542e+01 1.071033e+01 510
-8.721248e+00 1.086020e+01 7.757375e+00 521
-1.800864e+01 -2.024002e+01 8.120664e+00 524
-3.838408e+01 6.797599e+00 2.411406e+01 536
1.520165e+01 1.861563e+01 1.674339e+00 537
-1.278370e+01 -1.154029e+01 2.867824e+01 555
4.592761e+01 1.460282e+01 2.745422e+01 558
-1.374595e+01 4.868797e+00 2.935947e+01 559
2.577806e+01 1.283622e+01 2.933946e+01 564
3.774545e+01 1.877364e+01 1.647936e+01 578
-6.987767e+00 2.062137e+01 4.116979e-01 581
-4.812919e+01 -7.342781e-01 1.616805e+01 582
-2.816568e+01 1.379286e+01 1.373382e+01 588
4.287099e+01 2.163501e+01 1.518508e+01 591
-3.756858e+00 1.591862e+01 2.695779e+01 594
-9.470028e+00 -2.394079e+01 8.050001e-01 611
-4.473291e+01 -6.291909e+00 1.491634e+01 626
3.931711e+01 1.708267e+01 2.523120e+00 629
-1.021313e+01 2.260739e+01 2.640258e+01 634
-1.276729e+00 -1.419036e+01 6.493987e+00 636
-2.021584e+01 -7.868861e+00 2.281607e+01 640
1.291279e+01 2.088164e+01 2.922043e+01 642
4.894050e+01 1.392877e+01 1.270060e+01 643
2.452291e+01 1.609717e+01 2.132151e+00 650
4.749497e+01 -2.368465e+01 9.338851e+00 657
-1.405875e+01 -1.383096e+00 2.120119e+01 661
-4.360860e+01 -7.852134e+00 8.270975e+00 667
9.964364e+00 -1.189995e+01 2.355370e+01 674
2.766686e+01 -1.207988e+01 3.077046e+00 675
4.595391e+00 -1.554897e+01 1.403539e+01 686
3.929562e+01 1.430424e+00 1.970591e+01 687
1.586641e+01 -5.997532e+00 2.832778e+01 688
-2.649984e+01 -1.400923e+01 2.134143e+01 691
4.986078e+01 -8.909148e+00 2.804225e+01 695
-2.802541e+01 -6.497815e+00 8.797523e+00 697
-2.795224e+01 1.611945e+01 1.331583e+01 701
-2.443682e+01 -1.018212e+01 2.663957e+01 702
-1.735068e+01 1.694287e+01 2.577939e+01 704
4.883366e+01 -3.401895e+00 2.744598e+01 706
-2.429200e+01 -2.465753e+01 1.276837e+01 721
4.379045e+01 2.201718e+01 1.055100e+01 723
3.009770e+01 1.545238e+01 2.007186e+01 724
1.516294e+01 1.263001e+01 1.115496e+01 729
-6.653274e+00 -7.861069e+00 2.489225e+01 731
-3.600835e+01 2.476346e+01 2.971996e+01 733
-4.903725e+01 -2.211435e+01 8.877667e+00 739
-2.461045e+01 1.491217e+01 1.581809e+01 743
3.176783e+01 1.058422e+01 2.747790e+01 747
-6.257199e+00 -6.275024e+00 4.005189e+00 749
3.032886e+01 -1.161620e+01 1.053225e+01 752
1.864681e+01 1.108291e+01 2.729814e+01 754
-2.511329e+01 1.049219e+00 2.049883e+01 763
1.285960e+00 -1.225750e+01 3.246665e+00 776
-4.011212e+01 -2.398455e+01 4.760080e+00 782
3.418518e+01 -7.704593e+00 1.236875e+01 783
-1.891069e+01 7.540619e+00 7.009421e+00 791
-2.697976e+01 1.801941e+01 2.483047e+01 793
4.528656e-01 1.690691e+01 2.539810e+01 797
7.755141e+00 -3.832262e+00 2.560574e+01 814
1.168614e+01 -1.108950e+01 2.743594e+01 823
3.174613e+01 1.525291e+00 1.685827e+01 841
-4.538293e+01 -1.810393e+01 4.179776e+00 848
2.528582e+01 3.680444e+00 2.564631e+01 852
1.919671e+00 -6.847725e+00 4.238352e+00 853
1.193855e+01 6.130643e+00 1.105464e+01 860
1.563057e+01 -5.892302e+00 3.621208e+00 862
1.658312e+01 1.336970e+01 1.002296e-01 865
-1.857174e+00 1.229556e+01 1.522783e+01 871
-1.268811e+01 -1.933901e+01 1.773380e+01 879
7.202861e+00 -1.615785e+01 2.169225e+01 890
-3.713027e+01 2.159191e+01 4.145306e+00 891
-3.419916e+01 1.975862e+01 2.944684e+01 892
-3.296928e+01 1.126918e+01 1.869437e+01 893
-3.348380e+00 1.638642e+00 1.717770e+01 899
1.720704e+01 -2.261420e+01 1.622577e+01 901
3.936772e+01 5.340053e+00 1.247632e+00 903
-2.848146e+01 8.999298e+00 1.586170e+01 918
-3.828772e+01 -5.291025e+00 2.212787e+01 928
-1.171719e+01 2.380597e+01 2.523230e+01 939
-3.183900e+01 -1.159237e+01 1.107663e+01 961
-8.806153e+00 -7.230424e+00 2.970018e+01 971
1.609332e+01 -2.441470e+01 1.533269e+01 974
1.498303e+01 1.389358e-01 2.318785e+01 980
-5.594091e+00 -1.366562e+01 2.055750e+00 984
2.392595e+01 1.840085e+01 2.751029e+01 994
-3.381288e+01 -8.797122e+00 6.176134e+00 1000
5.677365e+00 9.266504e+00 2.883088e+01 1005
-3.394220e+01 9.634274e+00 2.184263e+01 1010
-1.574380e+01 1.319196e+01 2.859011e+01 1013
-3.953166e+01 6.167912e+00 2.468129e+01 1019
-2.374889e+00 -1.504797e+01 1.309162e+00 1024
-2.427836e+01 -1.055737e+01 2.447257e+01 1033
4.565485e+01 7.302495e+00 2.306011e+01 1046
9.194471e+00 2.271056e+01 8.886010e+00 1054
-8.622616e-02 -7.369975e+00 2.627088e+01 1056
-3.729008e+01 2.339787e+01 3.937113e+00 1058
-4.926557e+01 2.709797e+00 4.202811e+00 1073
2.076600e+01 2.284095e+01 4.550480e+00 1091
2.350228e+01 1.975604e+01 5.316889e+00 1096
-1.170447e+01 -1.117028e+01 2.576411e+01 1100
2.499483e+00 1.119625e+01 9.228118e+00 1119
2.007164e+01 1.725877e+01 6.862476e+00 1133
-2.866926e+01 1.967083e+01 1.454067e+01 1137
1.722803e+01 1.169709e+01 3.138994e+00 1140
-3.224983e+01 -1.733839e+01 1.403893e+01 1147
1.614030e+01 1.538063e+01 1.426408e+01 1168
-4.893491e+01 -2.272898e+00 9.297095e+00 1174
-1.505628e+01 -2.446323e+01 6.575147e+00 1176
2.464544e+01 1.019466e+01 6.905640e+00 1183
-4.369403e+01 -2.219774e+01 1.093457e+01 1193
-2.639715e+01 -2.062094e+01 1.164632e+01 1196
-4.980447e+01 5.354863e-01 2.030402e+01 1198
4.364535e+01 5.473826e+00 2.237176e+01 1210
-4.853986e+01 1.572488e+01 2.328263e+01 1222
3.117772e+00 1.813723e+01 3.938058e+00 1226
-1.601211e+01 1.501021e+01 2.104639e+01 1230
-4.480467e+01 -1.663907e+01 1.261443e+00 1232
2.548827e+01 1.141687e+00 5.767819e+00 1238
4.527541e+01 -3.312204e+00 1.193364e+01 1242
-5.951097e+00 -1.036431e+01 2.636845e+00 1250
4.820621e+01 -1.472685e+01 1.291691e+01 1252
-2.784695e+00 1.614831e+01 1.159041e+00 1260
3.408258e+01 5.414131e+00 2.437818e+01 1273
-2.873626e+01 -5.827494e+00 1.516286e+00 1278
2.516231e+01 -9.676967e+00 1.704407e+00 1284
-1.728618e+01 4.220675e+00 2.535800e+01 1286
3.057199e+01 9.880602e+00 1.345773e+00 1292
4.976340e+01 2.294763e+01 8.102608e+00 1299
-3.529444e+00 -6.361675e-01 2.795897e+01 1312
-3.684494e+00 -5.291952e+00 1.999414e+01 1323
-2.183182e+01 -2.371303e+01 2.436025e+01 1326
-2.439294e+01 -2.231529e+01 2.377898e+01 1332
2.749230e+01 -2.037397e+01 2.489516e+01 1333
-4.662928e+01 -1.085131e+00 1.815540e+01 1334
2.028281e+01 -1.890146e+01 1.473484e+01 1337
-1.990492e+01 4.807753e+00 4.291038e+00 1340
-6.913015e+00 -1.332685e+01 2.785247e+01 1342
-1.151167e+00 5.393118e+00 1.937126e+01 1346
2.337274e+01 1.623928e+01 1.627781e+01 1350
9.312483e+00 -5.826848e+00 2.607488e+01 1351
3.499669e+01 9.397482e-01 1.856229e+01 1352
-6.921224e+00 -4.841961e+00 1.143000e+01 1356
6.076158e+00 -6.421881e+00 1.445933e+01 1362
-4.551198e+01 5.208401e+00 1.538957e+01 1374
3.257157e+01 8.072603e+00 1.288912e+01 1375
3.102478e+01 1.039720e+01 1.464310e+01 1382
1.702213e+01 -2.809722e+00 2.053939e+01 1385
-9.801326e-01 -2.346702e+01 1.543434e+01 1395
1.462533e+01 1.229958e+01 1.369184e+01 1415
1.138550e+01 -1.849354e+01 1.958486e+01 1420
-8.734211e+00 1.970163e+01 6.480557e+00 1421
1.846328e+01 -1.760710e+01 2.037644e+01 1423
1.821906e+01 -1.151404e+01 8.486857e+00 1442
4.850604e+01 -4.557735e+00 1.036048e+00 1446
7.393150e+00 -3.321706e-01 1.746366e+01 1451
8.601643e+00 7.197156e+00 1.292531e+01 1455
3.513372e+01 -9.165770e+00 1.591929e+00 1460
1.003268e+01 -1.604151e+01 1.807097e+01 1470
-2.203207e+01 -3.019749e+00 6.549216e+00 1471
-3.111583e+01 -8.926763e+00 2.198956e+01 1472
3.658331e+01 -9.107961e+00 1.369911e+01 1474
-2.659357e+00 -1.347592e+01 1.435233e+01 1478
-4.372191e+01 1.711011e+01 2.141986e+01 1479
-1.741046e+01 -1.171280e+01 1.261764e+01 1493
2.604171e+01 -1.604850e+01 1.151484e+01 1496
-3.910355e+01 1.266916e+01 1.415714e+01 1502
1.727510e+01 1.780327e+01 1.683767e+01 1514
-2.042591e+00 -1.127681e+01 2.725138e+01 1516
3.689493e+01 -3.088001e+00 7.934087e-02 1517
-4.440642e+00 2.111590e+01 1.918603e+01 1518
-1.402300e+01 -1.954067e+01 7.570638e+00 1523
4.418837e+01 -1.878516e+01 2.773578e+01 1531
-6.118554e+00 1.828781e+01 3.178401e+00 1546
3.112834e+01 -3.027707e+00 8.107985e+00 1551
-4.894319e+01 1.091429e+01 2.515437e+01 1562
4.527174e+00 1.758713e+01 2.732190e+01 1576
-3.463032e+01 1.248388e+01 2.127386e+01 1580
-4.101356e+01 1.675723e+01 1.958925e+01 1582
4.667187e+01 -1.644124e+01 1.970691e+01 1584
-5.890257e+00 -1.290855e+01 1.952713e+01 1589
-3.111107e+01 2.125388e+01 2.883299e+01 1591
-2.057148e+01 2.391826e+01 2.880003e+01 1595
-5.487032e+00 1.068771e+01 2.542826e+01 1598
1.361224e+01 2.121372e+01 1.588777e+01 1606
3.071385e+00 -8.605958e+00 2.226698e+01 1615
1.978306e+01 -1.220289e+01 4.408979e+00 1617
3.087117e+01 -6.099598e+00 1.100213e+01 1620
-8.488113e+00 1.114921e+01 4.727131e+00 1623
-3.466278e+01 -2.356375e+01 1.104697e+01 1634
2.146184e+01 2.357648e+01 2.332722e+01 1642
-6.032961e+00 -3.956881e+00 1.463114e+01 1655
-4.173843e+01 1.575339e+01 3.465758e+00 1667
5.701927e+00 -2.106380e+01 1.963847e+01 1669
6.562940e+00 -7.856916e+00 1.587168e+01 1687
-4.415917e+01 2.471040e+01 2.378044e+01 1688
4.987365e+01 -1.093535e+01 9.828119e+00 1694
-4.055529e+01 -9.701339e+00 9.782224e+00 1701
2.288225e+01 1.673748e+01 2.065019e+01 1709
-4.630814e+01 7.334220e+00 9.737707e+00 1724
4.687966e+01 -6.507445e+00 2.687444e+01 1727
2.621785e+01 1.102371e+01 1.923341e+01 1735
2.528133e+00 7.195252e+00 9.720685e+00 1743
1.831771e+01 4.141458e+00 1.910054e+01 1744
3.152760e+01 7.732864e+00 3.996746e+00 1752
4.452377e+01 1.292720e+01 1.424594e+01 1754
-4.200523e+01 2.204508e+01 1.951684e+01 1756
9.337859e+00 8.864229e+00 2.138616e+01 1757
-4.066327e+01 1.761025e+01 6.078851e-02 1761
2.321193e+01 -2.901044e+00 6.603425e-01 1763
1.910641e+01 -2.296345e+01 2.938115e+01 1772
-4.657218e+01 -1.342597e+00 2.034631e+01 1773
-8.096973e+00 -1.935043e+01 1.640857e+01 1777
3.526004e+01 -1.228732e+01 1.087128e+00 1779
4.489752e+01 -1.140303e+01 2.604741e+01 1782
1.685360e+01 1.432646e+01 1.078898e+01 1784
-3.716370e+01 -9.230998e+00 1.779652e+01 1794
4.940381e+01 2.391420e+01 1.799859e+01 1798
-3.541448e+01 -2.177506e+01 1.972601e+01 1810
-4.700587e+01 7.789784e+00 7.738774e+00 1811
1.201442e+01 -2.433573e+01 1.625167e+01 1833
3.741166e+01 -6.485951e+00 2.612291e+01 1862
-2.859628e+01 3.776465e+00 1.570905e+01 1874
9.799097e+00 1.432313e+01 1.963350e+00 1876
3.262321e+01 -2.433716e+01 1.395771e+01 1877
2.577411e+01 2.032120e+01 1.740562e+01 1888
4.561942e+01 1.702165e+01 2.244802e+00 1895
-1.733286e+01 5.854539e-01 9.110021e+00 1906
4.622016e+01 -1.241068e+01 2.440306e+01 1908
2.573291e+01 -1.374519e+00 6.164130e+00 1912
-3.314768e+01 1.650164e+01 1.698995e+01 1920
1.115371e+01 1.840575e+01 1.755239e+01 1931
-4.807325e+01 2.386208e+01 3.819134e+00 1933
4.405492e+01 9.429805e+00 2.592676e+01 1959
-1.384371e+00 5.640881e+00 1.958100e+01 1968
-2.112199e+01 3.054450e+00 1.525902e+01 1972
-2.794608e+01 2.291384e+01 1.932840e+00 1973
4.347735e+01 2.170710e+00 1.450727e+01 1984
3.535041e+00 -1.019441e+01 1.725104e+01 1987
4.718580e+01 -2.392984e+01 9.328756e+00 1988
1.926237e+01 5.250375e+00 2.591963e+01 1990
4.560495e+01 1.376566e+01 2.215985e+01 1996
1.653392e+01 1.336471e+01 7.466294e+00 1997
-2.728051e+01 -5.291251e+00 2.300103e+01 2002
1.098989e+01 2.544896e+00 2.652749e+01 2009
4.954276e+00 2.485216e+01 1.838035e+01 2029
3.349436e+01 -3.381926e+00 2.745144e+01 2042
1.708889e+01 1.264304e+01 1.358382e+01 2044
-9.544523e+00 -1.675167e+01 2.651689e+01 2054
6.754564e+00 8.511626e+00 8.711336e+00 2057
1.616733e+01 2.386439e+01 2.029987e+01 2062
-1.691376e+01 8.788001e+00 1.999822e+01 2063
4.938246e+01 1.895496e+01 9.180413e+00 2080
-1.299162e+00 1.037220e+01 8.399256e+00 2091
-2.796447e+01 -1.212934e+01 1.738354e+01 2093
2.845225e+01 7.668214e+00 2.492965e+00 2094
-3.817957e+01 1.951024e+01 2.806908e+01 2109
-1.250621e+01 -6.622908e+00 5.720341e+00 2118
-3.110940e+01 2.466471e+01 5.714683e+00 2126
4.384973e+01 9.678414e+00 4.258020e+00 2128
1.246872e+01 -1.517735e+01 1.796652e+01 2129
-3.762520e+00 2.039636e+01 2.413545e+01 2137
9.819017e+00 3.588860e+00 5.166075e+00 2142
4.154929e+01 1.016254e+01 1.456118e+01 2145
1.947066e+01 2.463682e+01 2.523993e+01 2148
-1.219207e+01 -1.585768e+01 1.197236e+01 2153
3.285401e+01 1.520126e+01 1.409430e+01 2154
-1.833387e+01 1.875252e+01 1.963409e+01 2159
9.092859e+00 -1.177114e+00 1.246251e+01 2166
-4.511784e+01 7.244618e+00 7.713690e+00 2191
8.255798e+00 2.368995e+01 2.073968e+00 2200
-1.031363e+01 -8.977496e+00 1.054614e+01 2210
-4.031303e+01 7.849579e+00 2.292424e+01 2217
1.292542e+01 -5.370145e+00 2.417050e+01 2227
4.790955e+01 5.187915e+00 2.760864e+01 2228
4.651413e+00 -1.264802e+01 2.611741e+01 2233
3.243599e+01 2.630274e+00 4.279725e+00 2234
3.678976e+01 -1.918758e+01 2.434301e+01 2238
-3.399241e+01 1.004563e+01 2.303067e+01 2240
-3.877409e+01 -1.168045e+01 2.096681e+01 2244
-1.028690e+01 1.784736e+01 9.790829e+00 2252
-4.474840e+01 -1.181911e+01 3.505177e+00 2253
-4.630186e+01 8.855703e+00 8.410628e+00 2269
3.404385e+01 -4.065283e-01 6.366763e+00 2270
1.839367e+01 2.013599e+01 2.636487e+01 2287
8.290674e+00 7.773661e+00 1.466104e+01 2292
-3.510840e+01 1.425668e+01 2.340163e+00 2297
-2.100138e+01 -7.251465e+00 2.896672e+01 2307
2.565687e+01 1.037347e+01 8.672968e+00 2314
3.309244e+01 9.676103e+00 1.832238e+01 2334
4.893267e+01 -1.017359e+01 1.815209e+01 2347
1.046386e+01 7.426759e+00 2.816762e+01 2357
-1.354761e+01 2.385029e+01 2.701109e+01 2361
-2.204096e+01 9.772931e+00 2.568694e+01 2372
-2.348576e+01 -1.427660e+01 1.466077e+00 2386
2.651193e+00 2.265548e+01 2.378143e+01 2399
3.569292e+01 -9.023172e+00 3.047958e+00 2408
6.764511e+00 2.317970e+01 1.338651e+00 2425
4.612008e+01 -1.991862e+01 1.875048e+01 2426
2.570882e+01 -3.670304e+00 2.969535e+01 2428
-3.418536e+01 -8.798164e+00 2.148999e+01 2442
2.183203e+01 1.965085e+01 2.405319e+01 2451
-1.282989e+01 -1.656411e+01 2.302611e+01 2452
-1.664812e+01 -1.758224e+01 2.070256e+01 2454
4.281356e+01 -1.690244e+01 2.745442e+01 2494
-2.724580e+01 -5.716638e+00 1.887874e+01 2520
4.041002e+01 -2.399749e+01 1.553676e+01 2526
4.973285e+01 -1.515272e+01 1.212381e+00 2527
-2.896473e+01 1.539308e+00 1.720987e+00 2528
2.201880e+01 -1.873835e+01 2.560926e+01 2542
-3.161969e+01 9.976269e+00 2.108488e+01 2544
-1.688778e+01 1.194526e+01 1.845393e+01 2556
-1.500070e+01 -2.073074e+00 2.707817e+01 2566
-4.545977e+00 -1.194865e+01 4.675019e+00 2571
-9.500126e+00 9.634008e+00 1.494834e+01 2586
2.206345e+01 -8.553305e+00 2.317747e+01 2587
-3.774546e+01 2.240091e+01 2.944374e+01 2594
4.191296e+01 -3.387583e+00 1.456092e+01 2595
-3.332427e+00 1.531259e+01 7.505810e+00 2597
8.003403e+00 1.770955e+01 1.193092e+01 2598
-1.134985e+01 -2.290556e+01 2.526195e+00 2607
-1.937523e+01 -2.213588e+01 2.580846e+01 2633
2.600174e+01 2.270272e+01 2.668906e+01 2637
2.127327e+01 2.254756e+01 1.179885e+01 2640
1.674518e+01 -1.300046e+01 1.073488e+01 2644
-1.464062e+01 -9.273371e+00 4.711801e+00 2646
-4.838034e+01 -2.033143e+01 9.862649e+00 2649
-9.190782e+00 -1.696194e+01 2.693377e+01 2651
-4.602658e+01 -1.407257e+01 1.397291e+01 2653
-4.203237e+01 4.989247e+00 1.968624e+01 2670
-3.850957e+00 1.110968e+01 3.724716e+00 2704
-1.840280e+01 -1.987344e+01 1.693070e+01 2710
4.222695e+01 -4.885143e+00 2.700398e+01 2713
2.324249e+01 -4.833174e-01 8.490955e-01 2717
3.249903e+01 1.629253e+01 2.200045e+01 2731
4.194385e+01 -1.360727e+01 2.731762e+01 2734
2.835795e+01 -1.650879e+01 2.565367e-02 2739
-2.613762e+01 7.410138e+00 1.572284e+01 2752
-4.265719e+01 6.014764e+00 1.544295e+01 2760
-1.906659e+01 -2.247142e+01 2.847789e+01 2765
4.290154e+01 1.106015e+01 1.907422e+00 2769
3.993238e+01 8.562640e+00 2.488073e+01 2771
-2.521267e+01 -2.100685e+01 2.748202e+01 2772
2.266225e+01 -1.914931e+01 3.687589e+00 2782
3.037282e+00 -9.991615e+00 2.841088e+01 2787
-2.418215e+01 4.978704e+00 1.834487e+00 2795
1.739444e+01 -9.804999e+00 2.498377e+01 2800
-2.409951e+00 -2.254167e+01 7.866356e+00 2814
1.057710e+01 1.651895e+01 2.829496e+01 2816
-3.882656e+01 2.240174e+01 4.158609e+00 2836
-3.438628e+01 -1.308968e+00 9.041715e+00 2848
4.964117e+01 1.920887e+01 2.352745e+01 2862
-4.134668e+01 1.837025e+00 2.131983e+01 2866
-1.239701e+01 1.013727e+01 5.666011e+00 2868
-4.722366e+01 -4.765066e+00 1.277981e+01 2874
-1.917718e+01 -2.361652e+01 3.322566e+00 2877
1.702385e+01 9.626015e-01 4.757021e+00 2879
4.342110e+01 2.137470e+01 2.237358e+01 2883
1.757010e+00 1.602769e+01 6.716516e+00 2906
-1.401278e+01 1.066872e+01 2.527296e+01 2907
3.350349e+01 1.793854e+01 1.927613e+00 2923
-3.047697e+01 -2.059819e+01 2.225267e+01 2926
-2.743480e+01 -9.095838e-01 1.470347e+01 2940
-3.111005e+01 1.816392e+01 1.846477e+01 2943
3.862153e+01 -1.390296e+01 1.949062e+01 2952
2.423593e+01 -5.268023e+00 1.918167e+00 2956
2.959543e+00 -2.101647e+01 1.092817e+01 2970
2.387312e+01 -1.181068e+01 2.842064e+01 2982
1.241275e+01 1.068916e+01 1.643944e+01 2990
-3.388047e+01 1.522675e+01 1.521338e+01 2995
-2.197780e+01 5.329409e+00 1.136702e+01 2998
-1.772606e+01 1.794288e+00 9.181613e-01 3008
3.555617e+00 5.590717e+00 2.879791e+01 3025
-4.119609e+01 5.883600e+00 2.452293e+01 3028
3.139576e+01 -2.482670e+01 4.546089e-01 3044
1.539233e+01 1.905943e+01 2.254591e+01 3059
-4.775163e+01 -1.875666e+01 2.248964e+01 3067
1.267118e+00 -9.620838e+00 2.091257e+01 3081
1.869697e+01 3.459562e-01 1.921401e+01 3083
-2.515351e+01 -1.081887e+01 1.178768e+01 3089
4.762457e+01 -1.427950e+01 1.931354e+01 3094
-3.831871e+01 -1.806117e+01 1.536976e+01 3103
6.761398e+00 1.128552e+01 9.697644e+00 3104
-3.271092e+01 1.620984e+01 2.991522e+01 3120
1.548472e+01 1.686746e+01 7.345891e+00 3123
-1.937865e+01 -1.165324e+01 2.964608e+01 3134
2.601133e+01 -2.988443e+00 6.069656e-01 3156
4.392573e+01 -8.287979e+00 3.467586e+00 3157
-4.371983e+01 -1.596243e+01 2.139545e+00 3198
9.015024e+00 -6.934246e+00 2.526952e+01 3200
4.453094e+01 2.456861e+01 2.774728e+01 3209
3.930899e+01 2.267672e+01 2.681740e+01 3218
-2.556455e+01 1.642270e+01 1.445326e+00 3223
-1.462607e+01 1.873275e+00 1.308146e+01 3244
2.833301e+01 5.230625e+00 1.953347e+01 3248
2.311595e+01 -1.396864e+01 2.468929e+01 3254
4.781466e+01 4.408530e+00 1.190214e+01 3257
-4.938467e+01 -1.890022e+01 2.937009e+00 3258
4.403682e+01 -3.914667e+00 1.090611e+01 3259
1.657168e+00 1.997486e+01 2.604728e+01 3262
4.624576e+01 -4.955316e+00 1.866689e+01 3263
2.956549e+01 -1.688256e+01 3.683141e+00 3273
-6.133372e+00 -2.078712e+01 2.257117e+01 3285
3.967563e+01 -1.605722e+01 3.315406e+00 3308
2.480137e+01 1.553961e+01 5.553542e+00 3317
-4.123510e+01 -7.418365e+00 6.303620e-01 3321
-3.272387e+01 2.482167e+01 2.107155e+01 3322
2.176753e+01 9.126088e+00 2.993330e+00 3333
3.172629e+01 1.347852e+01 1.438961e+01 3347
1.947546e+01 -9.930383e+00 3.163742e+00 3348
-2.217958e+01 -2.041886e+01 3.244204e+00 3353
-2.034715e+01 -2.004152e+01 2.806034e+01 3357
3.522918e+01 -7.193434e+00 1.007468e+01 3366
-2.400188e+01 1.191872e+01 1.072919e+01 3375
4.006229e+01 -6.116614e+00 1.637330e+00 3398
-4.093659e+01 1.653960e+01 5.490824e+00 3402
-4.562605e+01 1.110839e+01 2.762998e+01 3415
-2.472701e+01 1.710816e+01 2.042644e+00 3431
-2.637351e+00 -8.125586e+00 2.081428e+01 3433
2.591855e+01 -1.549871e+01 2.956325e+01 3445
-3.915390e+01 -2.374480e+01 1.955003e+01 3447
3.018869e+01 1.804842e+01 2.298435e+01 3456
-2.869852e+01 -8.805681e+00 2.263336e+01 3460
-4.556782e+01 2.022157e+01 2.270164e+01 3461
4.276633e+01 -2.392003e+01 1.924495e+01 3463
-2.000432e+00 7.992882e+00 2.962014e+01 3464
-3.836903e+01 -1.664518e+00 1.372872e+01 3484
1.724708e+01 -2.414180e+01 3.534974e+00 3487
2.237690e+01 -7.194857e+00 2.292711e+01 3488
2.212280e+01 1.997442e+00 7.501550e+00 3491
3.260072e+01 -3.312328e+00 1.786708e+01 3492
-1.336200e+01 2.441748e+00 2.726507e+01 3498
5.009199e+00 -1.219282e+01 1.227672e+01 3503
2.195689e-02 1.380365e+01 2.019348e+01 3527
-4.324764e+01 -4.190685e+00 8.329295e+00 3532
3.046764e+01 6.959152e-02 7.284143e+00 3535
-3.594514e+01 -1.770720e+01 1.920839e+01 3538
-2.570749e+01 -6.571611e+00 1.728376e+01 3562
4.731258e+01 -1.774936e+01 1.471361e+01 3578
2.262561e+01 8.746020e+00 1.008458e+01 3593
4.993508e+01 4.413153e+00 1.734338e+01 3594
-3.161625e+01 -2.250847e+01 4.916590e+00 3604
-2.238405e+01 -1.666684e+01 1.472614e+01 3612
1.329162e+01 -1.175643e+01 2.476189e+01 3614
4.101469e+01 -6.463575e+00 1.417861e+01 3621
-4.884127e+01 -1.556856e+01 2.253074e+01 3626
-3.817670e+01 -1.839122e+00 9.181391e+00 3639
-3.247520e+01 1.128319e+01 2.109396e+00 3652
-9.192403e+00 7.193343e-01 1.096839e+01 3659
-2.169653e+01 -1.709686e+01 1.501867e+01 3663
1.696976e+01 2.183100e+01 1.980550e+01 3669
4.424012e+01 -1.750646e+00 1.961575e+00 3675
4.114687e+01 -5.378793e+00 1.532228e+00 3677
-4.042329e+00 -1.718104e+01 4.210748e+00 3679
-3.484226e+01 6.533762e+00 1.501179e+01 3682
-3.990369e+01 -1.297773e+01 1.876114e+01 3685
-3.339818e+01 8.303273e-01 2.355657e+00 3686
4.122090e+01 -1.274219e+01 8.132222e+00 3713
4.344209e+01 -2.829393e+00 2.598868e+01 3717
-2.278463e+01 1.139550e+01 2.229031e+01 3727
-2.507059e+01 -1.203647e+01 2.794517e+01 3729
-2.922159e+01 -2.424600e+01 9.594679e+00 3730
2.139939e+01 -4.061668e-01 2.027078e+01 3733
-9.566345e+00 1.573252e+00 7.189947e+00 3734
2.281160e+01 1.747245e+01 2.908462e+01 3736
2.748254e+01 7.078513e-01 7.590119e+00 3741
9.729374e+00 1.152618e+01 2.749029e+01 3747
-8.700140e+00 -1.683907e+01 1.440657e+01 3758
-2.352494e+01 -8.873988e+00 2.711242e+01 3760
-4.856682e+01 3.067558e+00 2.886798e+01 3761
-6.526672e+00 -1.798778e+01 1.449448e+01 3762
-4.894638e+01 -5.456321e+00 2.545150e+01 3766
3.558323e+01 1.809875e+01 2.643222e+01 3771
-3.483954e+01 -4.595331e+00 2.178375e+01 3780
4.298831e+01 2.885200e+00 8.305763e+00 3788
-1.162793e+01 -1.353943e+01 1.813453e+00 3798
2.135530e+01 -1.764005e+01 2.766656e+01 3800
7.022278e+00 -1.477336e+01 1.449089e+01 3801
2.746071e+01 1.942138e+01 1.815947e+01 3804
-2.322010e+01 8.635448e+00 1.205022e+01 3820
8.109578e+00 2.414140e-01 2.948518e+01 3824
3.697079e+01 -6.559506e+00 3.355782e+00 3836
7.204071e+00 -1.277115e+01 3.888656e+00 3844
-4.391397e+01 1.411732e+01 2.537843e+01 3849
-2.216020e+01 -4.815935e+00 1.904603e+01 3854
3.041346e+01 1.445382e+01 1.978921e+01 3856
3.712778e+01 1.921659e+01 1.762433e+00 3857
4.652100e+00 2.078710e+01 1.700225e+01 3858
3.140204e+01 1.446009e+01 1.505707e+01 3859
-1.820074e+01 -2.365449e+01 1.648309e+01 3865
4.518574e+01 1.888259e+01 1.788495e+01 3880
3.020161e+01 -6.551983e+00 8.601974e+00 3889
1.298495e+01 -2.034569e+01 1.700946e+00 3910
2.407083e+00 -2.122312e+01 2.147025e+01 3911
4.813689e+01 1.303611e+01 2.208770e+01 3919
4.122361e+01 -2.235808e+01 1.877077e+01 3929
4.376770e+01 -5.482816e+00 2.769832e+01 3930
-3.308641e+01 2.146744e+01 2.160402e+01 3935
3.344772e+01 -2.246391e+00 5.289196e+00 3953
1.421723e+01 6.267729e+00 2.446493e+01 3957
2.765716e+01 2.007442e+01 2.613644e+01 3963
2.644478e+00 8.120995e+00 1.362302e+01 3969
2.437850e+01 1.987509e+01 1.020543e+00 3973
-3.638757e+01 -1.280004e+01 2.021661e+01 3984
-1.776650e+01 -9.265093e+00 2.117705e+01 3989
-3.342440e+01 3.867251e-01 6.043247e+00 4011
3.538898e+01 1.847016e+01 1.175395e+01 4016
5.289582e+00 -8.653830e-01 1.870556e+01 4017
-1.718100e+01 -6.956384e+00 1.359621e+01 4020
-4.766370e+01 9.764158e+00 2.119575e+01 4029
3.504071e+01 -9.418631e+00 2.890601e+01 4034
-8.096381e+00 7.989582e+00 1.492068e+01 4036
-3.293520e+00 -3.021371e-01 4.725980e+00 4037
-1.538355e+01 -6.445699e+00 9.021207e+00 4039
-7.050956e+00 4.128838e+00 2.676033e+01 4046
-4.980857e+01 -8.953244e+00 1.399056e+01 4057
4.427963e+01 -1.816384e+01 2.911052e+01 4061
1.745583e+01 8.865981e+00 2.559559e+01 4066
-4.019890e+01 -8.631434e+00 7.965890e+00 4079
2.469340e+01 1.377893e+01 7.289462e+00 4080
-3.598457e+01 7.203925e+00 1.351839e+01 4088
-2.769785e+01 -2.159997e+01 1.003765e+01 4104
4.026571e+01 -1.625304e+01 2.215472e+01 4106
3.399255e+01 -2.493891e+01 6.766053e+00 4120
2.205800e+01 1.856121e+01 1.213495e+01 4144
-2.673370e+01 -3.702248e+00 1.681200e+01 4152
4.235638e+01 1.459528e+01 2.422359e+01 4161
4.854988e+01 1.762880e+01 2.106696e+01 4163
-1.452017e+01 -2.442231e+01 1.560899e+01 4165
3.812724e+01 -5.198643e+00 5.619166e+00 4170
4.796616e+00 4.235073e+00 2.012945e+01 4172
-8.645840e+00 -3.012411e+00 1.584467e+01 4178
1.583337e+01 1.594403e+01 1.213585e+01 4183
-4.558691e+00 1.130251e+01 2.882994e+01 4184
2.181288e+01 -1.581071e+01 3.379226e+00 4194
-1.851684e+01 7.047194e+00 2.755742e+01 4201
1.611951e+01 -2.366110e+01 1.486811e+01 4209
-7.126537e+00 -2.365785e+01 3.763061e+00 4211
1.038407e+01 2.143998e+01 2.339315e+01 4239
1.716493e+01 1.636296e+01 3.715250e+00 4245
3.397161e+01 6.241010e+00 2.050002e+00 4248
2.091859e+01 -1.969319e+01 1.471555e+01 4252
-1.638197e+01 -3.055439e+00 2.568633e+01 4256
-1.295453e+01 1.499664e+01 6.758901e+00 4265
-2.525006e+00 2.140290e+01 2.151360e+01 4266
1.953556e+01 8.596062e+00 2.600718e+01 4268
3.889495e+01 -1.747211e+01 2.306284e+01 4302
4.685382e+01 1.568859e+01 1.696129e+01 4304
-4.136930e+01 5.160647e-01 2.088607e+01 4308
-3.094092e+01 2.643271e+00 3.347958e+00 4314
3.334385e+01 -8.002705e+00 2.464043e+01 4318
3.196344e+01 9.080633e+00 1.721953e+01 4325
4.908885e+01 4.165544e+00 2.418655e+01 4327
-1.887053e+01 -1.522580e+01 2.618995e+01 4332
1.362837e+01 -1.232535e+01 8.441483e+00 4340
-1.251985e+01 4.244220e+00 2.213577e+01 4347
-3.001318e+01 -3.092527e-01 4.199174e-01 4351
6.353464e+00 -6.294469e+00 1.262537e+01 4352
-2.484055e+01 1.042510e+01 2.859175e+01 4353
1.436961e+01 1.699182e+01 2.938729e+00 4359
-4.602133e+01 1.445756e+01 1.074579e+01 4360
-2.373616e+01 9.525168e+00 4.286919e+00 4370
4.131158e+01 -8.922778e+00 4.797596e+00 4378
-2.807772e+01 1.981281e+01 1.073867e+01 4389
1.391534e+01 -2.155210e+01 6.600593e+00 4395
4.841361e+00 1.478089e+01 2.436170e+01 4396
-1.653281e+01 2.141569e+01 2.113688e+01 4402
2.102705e-01 -2.041028e+00 1.739324e+01 4404
3.959402e+01 -9.519093e+00 2.945986e+00 4408
4.431757e+01 -2.078380e+01 2.207894e+01 4409
1.141829e+01 9.967429e+00 6.760142e-01 4423
-5.629704e+00 -4.457154e+00 2.682825e+01 4432
-2.826962e+01 1.554158e+01 1.707312e+01 4434
-3.844521e+01 1.501589e+00 1.288443e+01 4435
1.638805e+01 1.105102e+01 1.440147e+01 4448
-2.981536e+01 1.241692e+01 2.910414e+01 4453
-4.539328e+01 9.479048e+00 2.380862e+01 4462
-1.826073e+01 1.976957e+01 2.711823e+01 4470
-1.870756e+01 2.353861e+01 4.016191e+00 4480
2.242918e+01 2.011111e+01 1.446805e+01 4481
2.989628e+01 2.157999e+00 2.389667e+01 4485
-1.362308e+01 1.298833e+01 1.520449e+01 4488
1.220491e+01 -8.977745e+00 9.128877e+00 4511
1.915170e+01 -5.906561e-01 1.976124e+01 4515
2.837080e+01 2.648378e+00 1.074493e+01 4524
-9.304384e+00 -2.207613e+01 1.127799e+01 4534
-2.674016e+00 1.008729e+01 2.412277e+01 4537
-1.883017e+01 1.291679e+01 5.843100e+00 4538
3.900241e+00 1.686553e+00 1.983183e+01 4541
-3.069406e+01 1.319061e+01 9.696204e+00 4544
4.993705e+01 -3.456858e+00 2.919311e+01 4553
-7.590321e+00 2.080121e+01 1.610388e+01 4578
1.424314e+01 1.186494e+01 1.941878e+01 4584
-4.232988e+01 5.861980e+00 1.474388e+01 4602
2.712072e+01 -1.150095e+01 8.846906e+00 4606
4.648958e+01 1.932253e+01 2.813375e+00 4614
4.260225e+01 -5.144942e-01 4.663345e+00 4618
5.165349e+00 -2.707512e+00 7.354547e+00 4620
-3.226883e+01 -5.219778e+00 5.957777e-02 4621
3.676113e+01 -1.326004e+01 7.784778e+00 4623
-8.636162e+00 -2.345661e+01 6.646955e+00 4624
3.548491e+01 3.394918e+00 1.495419e+01 4626
8.366600e+00 -3.199094e+00 1.846358e+01 4635
-3.925203e+01 1.691219e+01 2.731768e+01 4636
-4.344432e+01 1.629048e+00 2.258361e+01 4638
-4.529679e+01 -1.279564e+01 1.878767e+01 4640
4.629167e+01 1.356714e+01 2.859071e+00 4645
-4.746180e+01 -1.487986e+01 2.984969e+01 4646
8.673370e+00 -2.189694e+01 1.590485e+01 4654
1.719415e+01 -5.983877e+00 1.564584e+01 4659
-2.485952e+01 1.717969e+01 2.370018e+01 4660